diamond Si                              
   10.0000000000000     
     0.542000    0.000000    0.000000
     0.000000    0.542000    0.000000
     0.000000    0.000000    0.542000
   8
Direct
  0.000000  0.000000  0.000000
  0.000000  0.500000  0.500000
  0.500000  0.000000  0.500000
  0.500000  0.500000  0.000000
  0.250000  0.250000  0.250000
  0.250000  0.750000  0.750000
  0.750000  0.250000  0.750000
  0.750000  0.750000  0.250000
 
   32   32   32
 -30.854     -17.456      14.090      45.102      61.100      59.936      49.289      37.378      26.957      18.865    
  13.073      9.1379      6.5406      4.8656      3.8343      3.2774      3.1020      3.2774      3.8343      4.8656    
  6.5406      9.1379      13.073      18.865      26.957      37.378      49.289      59.936      61.100      45.102    
  14.090     -17.456     -17.456     -5.4397      22.664      49.756      62.773      60.133      49.213      37.384    
  27.066      19.042      13.278      9.3447      6.7393      5.0547      4.0159      3.4544      3.2774      3.4544    
  4.0159      5.0547      6.7393      9.3447      13.278      19.042      27.066      37.384      49.213      60.133    
  62.773      49.756      22.664     -5.4397      14.090      22.664      42.239      59.763      65.748      59.929    
  48.728      37.274      27.328      19.546      13.890      9.9806      7.3602      5.6510      4.5909      4.0159    
  3.8343      4.0159      4.5909      5.6510      7.3602      9.9806      13.890      19.546      27.328      37.274    
  48.728      59.929      65.748      59.763      42.239      22.664      45.102      49.756      59.763      66.957    
  66.009      57.930      47.306      36.765      27.590      20.306      14.905      11.088      8.4753      6.7410    
  5.6510      5.0547      4.8656      5.0547      5.6510      6.7410      8.4753      11.088      14.905      20.306    
  27.590      36.765      47.306      57.930      66.009      66.957      59.763      49.756      61.100      62.773    
  65.748      66.009      61.527      53.728      44.628      35.637      27.698      21.246      16.324      12.738    
  10.206      8.4753      7.3602      6.7393      6.5406      6.7393      7.3602      8.4753      10.206      12.738    
  16.324      21.246      27.698      35.637      44.628      53.728      61.527      66.009      65.748      62.773    
  59.936      60.133      59.929      57.930      53.728      47.735      40.813      33.874      27.590      22.329    
  18.182      15.047      12.738      11.088      9.9806      9.3447      9.1379      9.3447      9.9806      11.088    
  12.738      15.047      18.182      22.329      27.590      33.874      40.813      47.735      53.728      57.930    
  59.929      60.133      49.289      49.213      48.728      47.306      44.628      40.813      36.310      31.662    
  27.328      23.598      20.569      18.182      16.324      14.905      13.890      13.278      13.073      13.278    
  13.890      14.905      16.324      18.182      20.569      23.598      27.328      31.662      36.310      40.813    
  44.628      47.306      48.728      49.213      37.378      37.384      37.274      36.765      35.637      33.874    
  31.662      29.297      27.066      25.153      23.598      22.329      21.246      20.306      19.546      19.042    
  18.865      19.042      19.546      20.306      21.246      22.329      23.598      25.153      27.066      29.297    
  31.662      33.874      35.637      36.765      37.274      37.384      26.957      27.066      27.328      27.590    
  27.698      27.590      27.328      27.066      26.957      27.066      27.328      27.590      27.698      27.590    
  27.328      27.066      26.957      27.066      27.328      27.590      27.698      27.590      27.328      27.066    
  26.957      27.066      27.328      27.590      27.698      27.590      27.328      27.066      18.865      19.042    
  19.546      20.306      21.246      22.329      23.598      25.153      27.066      29.297      31.662      33.874    
  35.637      36.765      37.274      37.384      37.378      37.384      37.274      36.765      35.637      33.874    
  31.662      29.297      27.066      25.153      23.598      22.329      21.246      20.306      19.546      19.042    
  13.073      13.278      13.890      14.905      16.324      18.182      20.569      23.598      27.328      31.662    
  36.310      40.813      44.628      47.306      48.728      49.213      49.289      49.213      48.728      47.306    
  44.628      40.813      36.310      31.662      27.328      23.598      20.569      18.182      16.324      14.905    
  13.890      13.278      9.1379      9.3447      9.9806      11.088      12.738      15.047      18.182      22.329    
  27.590      33.874      40.813      47.735      53.728      57.930      59.929      60.133      59.936      60.133    
  59.929      57.930      53.728      47.735      40.813      33.874      27.590      22.329      18.182      15.047    
  12.738      11.088      9.9806      9.3447      6.5406      6.7393      7.3602      8.4753      10.206      12.738    
  16.324      21.246      27.698      35.637      44.628      53.728      61.527      66.009      65.748      62.773    
  61.100      62.773      65.748      66.009      61.527      53.728      44.628      35.637      27.698      21.246    
  16.324      12.738      10.206      8.4753      7.3602      6.7393      4.8656      5.0547      5.6510      6.7410    
  8.4753      11.088      14.905      20.306      27.590      36.765      47.306      57.930      66.009      66.957    
  59.763      49.756      45.102      49.756      59.763      66.957      66.009      57.930      47.306      36.765    
  27.590      20.306      14.905      11.088      8.4753      6.7410      5.6510      5.0547      3.8343      4.0159    
  4.5909      5.6510      7.3602      9.9806      13.890      19.546      27.328      37.274      48.728      59.929    
  65.748      59.763      42.239      22.664      14.090      22.664      42.239      59.763      65.748      59.929    
  48.728      37.274      27.328      19.546      13.890      9.9806      7.3602      5.6510      4.5909      4.0159    
  3.2774      3.4544      4.0159      5.0547      6.7393      9.3447      13.278      19.042      27.066      37.384    
  49.213      60.133      62.773      49.756      22.664     -5.4397     -17.456     -5.4397      22.664      49.756    
  62.773      60.133      49.213      37.384      27.066      19.042      13.278      9.3447      6.7393      5.0547    
  4.0159      3.4544      3.1020      3.2774      3.8343      4.8656      6.5406      9.1379      13.073      18.865    
  26.957      37.378      49.289      59.936      61.100      45.102      14.090     -17.456     -30.854     -17.456    
  14.090      45.102      61.100      59.936      49.289      37.378      26.957      18.865      13.073      9.1379    
  6.5406      4.8656      3.8343      3.2774      3.2774      3.4544      4.0159      5.0547      6.7393      9.3447    
  13.278      19.042      27.066      37.384      49.213      60.133      62.773      49.756      22.664     -5.4397    
 -17.456     -5.4397      22.664      49.756      62.773      60.133      49.213      37.384      27.066      19.042    
  13.278      9.3447      6.7393      5.0547      4.0159      3.4544      3.8343      4.0159      4.5909      5.6510    
  7.3602      9.9806      13.890      19.546      27.328      37.274      48.728      59.929      65.748      59.763    
  42.239      22.664      14.090      22.664      42.239      59.763      65.748      59.929      48.728      37.274    
  27.328      19.546      13.890      9.9806      7.3602      5.6510      4.5909      4.0159      4.8656      5.0547    
  5.6510      6.7410      8.4753      11.088      14.905      20.306      27.590      36.765      47.306      57.930    
  66.009      66.957      59.763      49.756      45.102      49.756      59.763      66.957      66.009      57.930    
  47.306      36.765      27.590      20.306      14.905      11.088      8.4753      6.7410      5.6510      5.0547    
  6.5406      6.7393      7.3602      8.4753      10.206      12.738      16.324      21.246      27.698      35.637    
  44.628      53.728      61.527      66.009      65.748      62.773      61.100      62.773      65.748      66.009    
  61.527      53.728      44.628      35.637      27.698      21.246      16.324      12.738      10.206      8.4753    
  7.3602      6.7393      9.1379      9.3447      9.9806      11.088      12.738      15.047      18.182      22.329    
  27.590      33.874      40.813      47.735      53.728      57.930      59.929      60.133      59.936      60.133    
  59.929      57.930      53.728      47.735      40.813      33.874      27.590      22.329      18.182      15.047    
  12.738      11.088      9.9806      9.3447      13.073      13.278      13.890      14.905      16.324      18.182    
  20.569      23.598      27.328      31.662      36.310      40.813      44.628      47.306      48.728      49.213    
  49.289      49.213      48.728      47.306      44.628      40.813      36.310      31.662      27.328      23.598    
  20.569      18.182      16.324      14.905      13.890      13.278      18.865      19.042      19.546      20.306    
  21.246      22.329      23.598      25.153      27.066      29.297      31.662      33.874      35.637      36.765    
  37.274      37.384      37.378      37.384      37.274      36.765      35.637      33.874      31.662      29.297    
  27.066      25.153      23.598      22.329      21.246      20.306      19.546      19.042      26.957      27.066    
  27.328      27.590      27.698      27.590      27.328      27.066      26.957      27.066      27.328      27.590    
  27.698      27.590      27.328      27.066      26.957      27.066      27.328      27.590      27.698      27.590    
  27.328      27.066      26.957      27.066      27.328      27.590      27.698      27.590      27.328      27.066    
  37.378      37.384      37.274      36.765      35.637      33.874      31.662      29.297      27.066      25.153    
  23.598      22.329      21.246      20.306      19.546      19.042      18.865      19.042      19.546      20.306    
  21.246      22.329      23.598      25.153      27.066      29.297      31.662      33.874      35.637      36.765    
  37.274      37.384      49.289      49.213      48.728      47.306      44.628      40.813      36.310      31.662    
  27.328      23.598      20.569      18.182      16.324      14.905      13.890      13.278      13.073      13.278    
  13.890      14.905      16.324      18.182      20.569      23.598      27.328      31.662      36.310      40.813    
  44.628      47.306      48.728      49.213      59.936      60.133      59.929      57.930      53.728      47.735    
  40.813      33.874      27.590      22.329      18.182      15.047      12.738      11.088      9.9806      9.3447    
  9.1379      9.3447      9.9806      11.088      12.738      15.047      18.182      22.329      27.590      33.874    
  40.813      47.735      53.728      57.930      59.929      60.133      61.100      62.773      65.748      66.009    
  61.527      53.728      44.628      35.637      27.698      21.246      16.324      12.738      10.206      8.4753    
  7.3602      6.7393      6.5406      6.7393      7.3602      8.4753      10.206      12.738      16.324      21.246    
  27.698      35.637      44.628      53.728      61.527      66.009      65.748      62.773      45.102      49.756    
  59.763      66.957      66.009      57.930      47.306      36.765      27.590      20.306      14.905      11.088    
  8.4753      6.7410      5.6510      5.0547      4.8656      5.0547      5.6510      6.7410      8.4753      11.088    
  14.905      20.306      27.590      36.765      47.306      57.930      66.009      66.957      59.763      49.756    
  14.090      22.664      42.239      59.763      65.748      59.929      48.728      37.274      27.328      19.546    
  13.890      9.9806      7.3602      5.6510      4.5909      4.0159      3.8343      4.0159      4.5909      5.6510    
  7.3602      9.9806      13.890      19.546      27.328      37.274      48.728      59.929      65.748      59.763    
  42.239      22.664     -17.456     -5.4397      22.664      49.756      62.773      60.133      49.213      37.384    
  27.066      19.042      13.278      9.3447      6.7393      5.0547      4.0159      3.4544      3.2774      3.4544    
  4.0159      5.0547      6.7393      9.3447      13.278      19.042      27.066      37.384      49.213      60.133    
  62.773      49.756      22.664     -5.4397     -17.456     -5.4397      22.664      49.756      62.773      60.133    
  49.213      37.384      27.066      19.042      13.278      9.3447      6.7393      5.0547      4.0159      3.4544    
  3.2774      3.4544      4.0159      5.0547      6.7393      9.3447      13.278      19.042      27.066      37.384    
  49.213      60.133      62.773      49.756      22.664     -5.4397     -5.4397      8.5715      35.616      59.698    
  69.526      64.690      52.674      40.163      29.297      20.793      14.614      10.344      7.4812      5.6038    
  4.4182      3.7373      3.4544      3.5294      3.9846      4.8996      6.4231      8.8030      12.414      17.727    
  25.153      34.730      45.703      55.910      58.897      48.001      24.980      2.0689      22.664      35.616    
  56.367      72.417      75.933      68.001      55.347      42.686      31.662      22.910      16.424      11.846    
  8.7089      6.6065      5.2420      4.4182      4.0159      3.9846      4.3367      5.1394      6.5220      8.7013    
  12.005      16.848      23.598      32.308      42.358      52.144      57.371      52.592      38.738      24.980    
  49.756      59.698      72.417      79.840      77.798      68.380      56.404      44.459      33.874      25.255    
  18.685      13.907      10.528      8.1850      6.6065      5.6038      5.0547      4.8996      5.1394      5.8270    
  7.0700      9.0490      12.034      16.360      22.329      30.000      38.934      47.995      55.109      56.721    
  52.593      48.001      62.773      69.526      75.933      77.798      73.655      65.454      55.405      45.097    
  35.637      27.657      21.359      16.602      13.088      10.528      8.7089      7.4812      6.7393      6.4231    
  6.5220      7.0700      8.1459      9.8857      12.490      16.206      21.246      27.657      35.153      42.984    
  50.065      55.109      57.371      58.897      60.133      64.690      68.001      68.380      65.454      59.797    
  52.440      44.459      36.765      30.000      24.446      20.050      16.602      13.907      11.846      10.344    
  9.3447      8.8030      8.7013      9.0490      9.8857      11.293      13.398      16.360      20.306      25.255    
  31.021      37.148      42.984      47.995      52.144      55.910      49.213      52.674      55.347      56.404    
  55.405      52.440      47.979      42.686      37.274      32.308      28.044      24.446      21.359      18.685    
  16.424      14.614      13.278      12.414      12.005      12.034      12.490      13.398      14.822      16.848    
  19.546      22.910      26.822      31.021      35.153      38.934      42.358      45.703      37.384      40.163    
  42.686      44.459      45.097      44.459      42.686      40.163      37.384      34.730      32.308      30.000    
  27.657      25.255      22.910      20.793      19.042      17.727      16.848      16.360      16.206      16.360    
  16.848      17.727      19.042      20.793      22.910      25.255      27.657      30.000      32.308      34.730    
  27.066      29.297      31.662      33.874      35.637      36.765      37.274      37.384      37.378      37.384    
  37.274      36.765      35.637      33.874      31.662      29.297      27.066      25.153      23.598      22.329    
  21.246      20.306      19.546      19.042      18.865      19.042      19.546      20.306      21.246      22.329    
  23.598      25.153      19.042      20.793      22.910      25.255      27.657      30.000      32.308      34.730    
  37.384      40.163      42.686      44.459      45.097      44.459      42.686      40.163      37.384      34.730    
  32.308      30.000      27.657      25.255      22.910      20.793      19.042      17.727      16.848      16.360    
  16.206      16.360      16.848      17.727      13.278      14.614      16.424      18.685      21.359      24.446    
  28.044      32.308      37.274      42.686      47.979      52.440      55.405      56.404      55.347      52.674    
  49.213      45.703      42.358      38.934      35.153      31.021      26.822      22.910      19.546      16.848    
  14.822      13.398      12.490      12.034      12.005      12.414      9.3447      10.344      11.846      13.907    
  16.602      20.050      24.446      30.000      36.765      44.459      52.440      59.797      65.454      68.380    
  68.001      64.690      60.133      55.910      52.144      47.995      42.984      37.148      31.021      25.255    
  20.306      16.360      13.398      11.293      9.8857      9.0490      8.7013      8.8030      6.7393      7.4812    
  8.7089      10.528      13.088      16.602      21.359      27.657      35.637      45.097      55.405      65.454    
  73.655      77.798      75.933      69.526      62.773      58.897      57.371      55.109      50.065      42.984    
  35.153      27.657      21.246      16.206      12.490      9.8857      8.1459      7.0700      6.5220      6.4231    
  5.0547      5.6038      6.6065      8.1850      10.528      13.907      18.685      25.255      33.874      44.459    
  56.404      68.380      77.798      79.840      72.417      59.698      49.756      48.001      52.593      56.721    
  55.109      47.995      38.934      30.000      22.329      16.360      12.034      9.0490      7.0700      5.8270    
  5.1394      4.8996      4.0159      4.4182      5.2420      6.6065      8.7089      11.846      16.424      22.910    
  31.662      42.686      55.347      68.001      75.933      72.417      56.367      35.616      22.664      24.980    
  38.738      52.592      57.371      52.144      42.358      32.308      23.598      16.848      12.005      8.7013    
  6.5220      5.1394      4.3367      3.9846      3.4544      3.7373      4.4182      5.6038      7.4812      10.344    
  14.614      20.793      29.297      40.163      52.674      64.690      69.526      59.698      35.616      8.5715    
 -5.4397      2.0689      24.980      48.001      58.897      55.910      45.703      34.730      25.153      17.727    
  12.414      8.8030      6.4231      4.8996      3.9846      3.5294      3.2774      3.4544      4.0159      5.0547    
  6.7393      9.3447      13.278      19.042      27.066      37.384      49.213      60.133      62.773      49.756    
  22.664     -5.4397     -17.456     -5.4397      22.664      49.756      62.773      60.133      49.213      37.384    
  27.066      19.042      13.278      9.3447      6.7393      5.0547      4.0159      3.4544      3.4544      3.5294    
  3.9846      4.8996      6.4231      8.8030      12.414      17.727      25.153      34.730      45.703      55.910    
  58.897      48.001      24.980      2.0689     -5.4397      8.5715      35.616      59.698      69.526      64.690    
  52.674      40.163      29.297      20.793      14.614      10.344      7.4812      5.6038      4.4182      3.7373    
  4.0159      3.9846      4.3367      5.1394      6.5220      8.7013      12.005      16.848      23.598      32.308    
  42.358      52.144      57.371      52.592      38.738      24.980      22.664      35.616      56.367      72.417    
  75.933      68.001      55.347      42.686      31.662      22.910      16.424      11.846      8.7089      6.6065    
  5.2420      4.4182      5.0547      4.8996      5.1394      5.8270      7.0700      9.0490      12.034      16.360    
  22.329      30.000      38.934      47.995      55.109      56.721      52.593      48.001      49.756      59.698    
  72.417      79.840      77.798      68.380      56.404      44.459      33.874      25.255      18.685      13.907    
  10.528      8.1850      6.6065      5.6038      6.7393      6.4231      6.5220      7.0700      8.1459      9.8857    
  12.490      16.206      21.246      27.657      35.153      42.984      50.065      55.109      57.371      58.897    
  62.773      69.526      75.933      77.798      73.655      65.454      55.405      45.097      35.637      27.657    
  21.359      16.602      13.088      10.528      8.7089      7.4812      9.3447      8.8030      8.7013      9.0490    
  9.8857      11.293      13.398      16.360      20.306      25.255      31.021      37.148      42.984      47.995    
  52.144      55.910      60.133      64.690      68.001      68.380      65.454      59.797      52.440      44.459    
  36.765      30.000      24.446      20.050      16.602      13.907      11.846      10.344      13.278      12.414    
  12.005      12.034      12.490      13.398      14.822      16.848      19.546      22.910      26.822      31.021    
  35.153      38.934      42.358      45.703      49.213      52.674      55.347      56.404      55.405      52.440    
  47.979      42.686      37.274      32.308      28.044      24.446      21.359      18.685      16.424      14.614    
  19.042      17.727      16.848      16.360      16.206      16.360      16.848      17.727      19.042      20.793    
  22.910      25.255      27.657      30.000      32.308      34.730      37.384      40.163      42.686      44.459    
  45.097      44.459      42.686      40.163      37.384      34.730      32.308      30.000      27.657      25.255    
  22.910      20.793      27.066      25.153      23.598      22.329      21.246      20.306      19.546      19.042    
  18.865      19.042      19.546      20.306      21.246      22.329      23.598      25.153      27.066      29.297    
  31.662      33.874      35.637      36.765      37.274      37.384      37.378      37.384      37.274      36.765    
  35.637      33.874      31.662      29.297      37.384      34.730      32.308      30.000      27.657      25.255    
  22.910      20.793      19.042      17.727      16.848      16.360      16.206      16.360      16.848      17.727    
  19.042      20.793      22.910      25.255      27.657      30.000      32.308      34.730      37.384      40.163    
  42.686      44.459      45.097      44.459      42.686      40.163      49.213      45.703      42.358      38.934    
  35.153      31.021      26.822      22.910      19.546      16.848      14.822      13.398      12.490      12.034    
  12.005      12.414      13.278      14.614      16.424      18.685      21.359      24.446      28.044      32.308    
  37.274      42.686      47.979      52.440      55.405      56.404      55.347      52.674      60.133      55.910    
  52.144      47.995      42.984      37.148      31.021      25.255      20.306      16.360      13.398      11.293    
  9.8857      9.0490      8.7013      8.8030      9.3447      10.344      11.846      13.907      16.602      20.050    
  24.446      30.000      36.765      44.459      52.440      59.797      65.454      68.380      68.001      64.690    
  62.773      58.897      57.371      55.109      50.065      42.984      35.153      27.657      21.246      16.206    
  12.490      9.8857      8.1459      7.0700      6.5220      6.4231      6.7393      7.4812      8.7089      10.528    
  13.088      16.602      21.359      27.657      35.637      45.097      55.405      65.454      73.655      77.798    
  75.933      69.526      49.756      48.001      52.593      56.721      55.109      47.995      38.934      30.000    
  22.329      16.360      12.034      9.0490      7.0700      5.8270      5.1394      4.8996      5.0547      5.6038    
  6.6065      8.1850      10.528      13.907      18.685      25.255      33.874      44.459      56.404      68.380    
  77.798      79.840      72.417      59.698      22.664      24.980      38.738      52.592      57.371      52.144    
  42.358      32.308      23.598      16.848      12.005      8.7013      6.5220      5.1394      4.3367      3.9846    
  4.0159      4.4182      5.2420      6.6065      8.7089      11.846      16.424      22.910      31.662      42.686    
  55.347      68.001      75.933      72.417      56.367      35.616     -5.4397      2.0689      24.980      48.001    
  58.897      55.910      45.703      34.730      25.153      17.727      12.414      8.8030      6.4231      4.8996    
  3.9846      3.5294      3.4544      3.7373      4.4182      5.6038      7.4812      10.344      14.614      20.793    
  29.297      40.163      52.674      64.690      69.526      59.698      35.616      8.5715      14.090      22.664    
  42.239      59.763      65.748      59.929      48.728      37.274      27.328      19.546      13.890      9.9806    
  7.3602      5.6510      4.5909      4.0159      3.8343      4.0159      4.5909      5.6510      7.3602      9.9806    
  13.890      19.546      27.328      37.274      48.728      59.929      65.748      59.763      42.239      22.664    
  22.664      35.616      56.367      72.417      75.933      68.001      55.347      42.686      31.662      22.910    
  16.424      11.846      8.7089      6.6065      5.2420      4.4182      4.0159      3.9846      4.3367      5.1394    
  6.5220      8.7013      12.005      16.848      23.598      32.308      42.358      52.144      57.371      52.592    
  38.738      24.980      42.239      56.367      73.945      84.971      84.349      74.421      61.171      47.979    
  36.310      26.822      19.601      14.360      10.662      8.0981      6.3634      5.2420      4.5909      4.3367    
  4.4718      5.0417      6.1441      7.9498      10.725      14.822      20.569      28.044      36.765      45.469    
  51.520      50.919      44.329      38.738      59.763      72.417      84.971      90.773      87.353      77.483    
  65.118      52.440      40.813      31.021      23.328      17.562      13.336      10.274      8.0981      6.6065    
  5.6510      5.1394      5.0417      5.3792      6.2198      7.6898      9.9916      13.398      18.182      24.446    
  31.889      39.643      46.422      50.195      50.919      52.593      65.748      75.933      84.349      87.353    
  84.183      76.624      66.505      55.405      44.628      35.153      27.453      21.470      16.870      13.336    
  10.662      8.7089      7.3602      6.5220      6.1441      6.2198      6.7828      7.9146      9.7535      12.490    
  16.324      21.359      27.453      34.102      40.588      46.422      51.520      57.371      59.929      68.001    
  74.421      77.483      76.624      72.218      65.118      56.404      47.306      38.934      31.889      26.166    
  21.470      17.562      14.360      11.846      9.9806      8.7013      7.9498      7.6898      7.9146      8.6565    
  9.9916      12.034      14.905      18.685      23.328      28.591      34.102      39.643      45.469      52.144    
  48.728      55.347      61.171      65.118      66.505      65.118      61.171      55.347      48.728      42.358    
  36.765      31.889      27.453      23.328      19.601      16.424      13.890      12.005      10.725      9.9916    
  9.7535      9.9916      10.725      12.005      13.890      16.424      19.601      23.328      27.453      31.889    
  36.765      42.358      37.274      42.686      47.979      52.440      55.405      56.404      55.347      52.674    
  49.213      45.703      42.358      38.934      35.153      31.021      26.822      22.910      19.546      16.848    
  14.822      13.398      12.490      12.034      12.005      12.414      13.278      14.614      16.424      18.685    
  21.359      24.446      28.044      32.308      27.328      31.662      36.310      40.813      44.628      47.306    
  48.728      49.213      49.289      49.213      48.728      47.306      44.628      40.813      36.310      31.662    
  27.328      23.598      20.569      18.182      16.324      14.905      13.890      13.278      13.073      13.278    
  13.890      14.905      16.324      18.182      20.569      23.598      19.546      22.910      26.822      31.021    
  35.153      38.934      42.358      45.703      49.213      52.674      55.347      56.404      55.405      52.440    
  47.979      42.686      37.274      32.308      28.044      24.446      21.359      18.685      16.424      14.614    
  13.278      12.414      12.005      12.034      12.490      13.398      14.822      16.848      13.890      16.424    
  19.601      23.328      27.453      31.889      36.765      42.358      48.728      55.347      61.171      65.118    
  66.505      65.118      61.171      55.347      48.728      42.358      36.765      31.889      27.453      23.328    
  19.601      16.424      13.890      12.005      10.725      9.9916      9.7535      9.9916      10.725      12.005    
  9.9806      11.846      14.360      17.562      21.470      26.166      31.889      38.934      47.306      56.404    
  65.118      72.218      76.624      77.483      74.421      68.001      59.929      52.144      45.469      39.643    
  34.102      28.591      23.328      18.685      14.905      12.034      9.9916      8.6565      7.9146      7.6898    
  7.9498      8.7013      7.3602      8.7089      10.662      13.336      16.870      21.470      27.453      35.153    