diamond Si                              
   10.0000000000000     
     0.542000    0.000000    0.000000
     0.000000    0.542000    0.000000
     0.000000    0.000000    0.542000
   8
Direct
  0.000000  0.000000  0.000000
  0.000000  0.500000  0.500000
  0.500000  0.000000  0.500000
  0.500000  0.500000  0.000000
  0.250000  0.250000  0.250000
  0.250000  0.750000  0.750000
  0.750000  0.250000  0.750000
  0.750000  0.750000  0.250000
 
   32   32   32
 -.30853729273E+02 -.17456452846E+02 0.14089595544E+02 0.45102337089E+02 0.61099623730E+02
 0.59936434274E+02 0.49289128299E+02 0.37378171382E+02 0.26956777844E+02 0.18865224988E+02
 0.13073454430E+02 0.91378714821E+01 0.65406187150E+01 0.48656195557E+01 0.38343405443E+01
 0.32774193405E+01 0.31019787883E+01 0.32774193405E+01 0.38343405443E+01 0.48656195557E+01
 0.65406187150E+01 0.91378714821E+01 0.13073454430E+02 0.18865224988E+02 0.26956777844E+02
 0.37378171382E+02 0.49289128299E+02 0.59936434274E+02 0.61099623730E+02 0.45102337089E+02
 0.14089595544E+02 -.17456452846E+02 -.17456452651E+02 -.54397117256E+01 0.22664027823E+02
 0.49755770066E+02 0.62773270795E+02 0.60133099209E+02 0.49213418598E+02 0.37384275158E+02
 0.27065597507E+02 0.19042024568E+02 0.13278072903E+02 0.93447298558E+01 0.67392857047E+01
 0.50546838281E+01 0.40158983433E+01 0.34543940981E+01 0.32774195348E+01 0.34543940981E+01
 0.40158983433E+01 0.50546838281E+01 0.67392857047E+01 0.93447298558E+01 0.13278072903E+02
 0.19042024568E+02 0.27065597507E+02 0.37384275158E+02 0.49213418598E+02 0.60133099209E+02
 0.62773270795E+02 0.49755770066E+02 0.22664027823E+02 -.54397117256E+01 0.14089596184E+02
 0.22664028269E+02 0.42239075917E+02 0.59763296406E+02 0.65747759436E+02 0.59928794628E+02
 0.48727514220E+02 0.37273791823E+02 0.27327892765E+02 0.19545647502E+02 0.13890355124E+02
 0.99805821788E+01 0.73602119945E+01 0.56510140484E+01 0.45909417947E+01 0.40158987888E+01
 0.38343411841E+01 0.40158987888E+01 0.45909417947E+01 0.56510140484E+01 0.73602119945E+01
 0.99805821788E+01 0.13890355124E+02 0.19545647502E+02 0.27327892765E+02 0.37273791823E+02
 0.48727514220E+02 0.59928794628E+02 0.65747759436E+02 0.59763296406E+02 0.42239075917E+02
 0.22664028269E+02 0.45102338132E+02 0.49755770914E+02 0.59763296808E+02 0.66957087887E+02
 0.66008897027E+02 0.57930139372E+02 0.47305732737E+02 0.36764883291E+02 0.27589595995E+02
 0.20306251532E+02 0.14905213448E+02 0.11087817919E+02 0.84752823528E+01 0.67409568022E+01
 0.56510144512E+01 0.50546846763E+01 0.48656205982E+01 0.50546846763E+01 0.56510144512E+01
 0.67409568022E+01 0.84752823528E+01 0.11087817919E+02 0.14905213448E+02 0.20306251532E+02
 0.27589595995E+02 0.36764883291E+02 0.47305732737E+02 0.57930139372E+02 0.66008897027E+02
 0.66957087887E+02 0.59763296808E+02 0.49755770914E+02 0.61099624920E+02 0.62773271791E+02
 0.65747759986E+02 0.66008897174E+02 0.61526960861E+02 0.53727608779E+02 0.44627877974E+02
 0.35636841695E+02 0.27697823627E+02 0.21245505547E+02 0.16323986758E+02 0.12737843879E+02
 0.10206113423E+02 0.84752825004E+01 0.73602125449E+01 0.67392867006E+01 0.65406199052E+01
 0.67392867006E+01 0.73602125449E+01 0.84752825004E+01 0.10206113423E+02 0.12737843879E+02
 0.16323986758E+02 0.21245505547E+02 0.27697823627E+02 0.35636841695E+02 0.44627877974E+02
 0.53727608779E+02 0.61526960861E+02 0.66008897174E+02 0.65747759986E+02 0.62773271791E+02
 0.59936435358E+02 0.60133100100E+02 0.59928795073E+02 0.57930139414E+02 0.53727608674E+02
 0.47734736342E+02 0.40813082240E+02 0.33873520376E+02 0.27589596038E+02 0.22328514472E+02
 0.18182027152E+02 0.15046515035E+02 0.12737843773E+02 0.11087817961E+02 0.99805826239E+01
 0.93447307463E+01 0.91378725669E+01 0.93447307463E+01 0.99805826239E+01 0.11087817961E+02
 0.12737843773E+02 0.15046515035E+02 0.18182027152E+02 0.22328514472E+02 0.27589596038E+02
 0.33873520376E+02 0.40813082240E+02 0.47734736342E+02 0.53727608674E+02 0.57930139414E+02
 0.59928795073E+02 0.60133100100E+02 0.49289129176E+02 0.49213419280E+02 0.48727514457E+02
 0.47305732572E+02 0.44627877661E+02 0.40813082032E+02 0.36310207177E+02 0.31661737838E+02
 0.27327893002E+02 0.23598354522E+02 0.20568513711E+02 0.18182026944E+02 0.16323986445E+02
 0.14905213282E+02 0.13890355361E+02 0.13278073585E+02 0.13073455307E+02 0.13278073585E+02
 0.13890355361E+02 0.14905213282E+02 0.16323986445E+02 0.18182026944E+02 0.20568513711E+02
 0.23598354522E+02 0.27327893002E+02 0.31661737838E+02 0.36310207177E+02 0.40813082032E+02
 0.44627877661E+02 0.47305732572E+02 0.48727514457E+02 0.49213419280E+02 0.37378172093E+02
 0.37384275675E+02 0.37273791895E+02 0.36764882960E+02 0.35636841217E+02 0.33873520003E+02
 0.31661737673E+02 0.29296596527E+02 0.27065598024E+02 0.25153109155E+02 0.23598354357E+02
 0.22328514099E+02 0.21245505069E+02 0.20306251201E+02 0.19545647574E+02 0.19042025085E+02
 0.18865225700E+02 0.19042025085E+02 0.19545647574E+02 0.20306251201E+02 0.21245505069E+02
 0.22328514099E+02 0.23598354357E+02 0.25153109155E+02 0.27065598024E+02 0.29296596527E+02
 0.31661737673E+02 0.33873520003E+02 0.35636841217E+02 0.36764882960E+02 0.37273791895E+02
 0.37384275675E+02 0.26956778497E+02 0.27065597966E+02 0.27327892778E+02 0.27589595606E+02
 0.27697823090E+02 0.27589595606E+02 0.27327892778E+02 0.27065597966E+02 0.26956778497E+02
 0.27065597966E+02 0.27327892778E+02 0.27589595606E+02 0.27697823090E+02 0.27589595606E+02
 0.27327892778E+02 0.27065597966E+02 0.26956778497E+02 0.27065597966E+02 0.27327892778E+02
 0.27589595606E+02 0.27697823090E+02 0.27589595606E+02 0.27327892778E+02 0.27065597966E+02
 0.26956778497E+02 0.27065597966E+02 0.27327892778E+02 0.27589595606E+02 0.27697823090E+02
 0.27589595606E+02 0.27327892778E+02 0.27065597966E+02 0.18865225700E+02 0.19042025085E+02
 0.19545647574E+02 0.20306251201E+02 0.21245505069E+02 0.22328514099E+02 0.23598354357E+02
 0.25153109155E+02 0.27065598024E+02 0.29296596527E+02 0.31661737673E+02 0.33873520003E+02
 0.35636841217E+02 0.36764882960E+02 0.37273791895E+02 0.37384275675E+02 0.37378172093E+02
 0.37384275675E+02 0.37273791895E+02 0.36764882960E+02 0.35636841217E+02 0.33873520003E+02
 0.31661737673E+02 0.29296596527E+02 0.27065598024E+02 0.25153109155E+02 0.23598354357E+02
 0.22328514099E+02 0.21245505069E+02 0.20306251201E+02 0.19545647574E+02 0.19042025085E+02
 0.13073455307E+02 0.13278073585E+02 0.13890355361E+02 0.14905213282E+02 0.16323986445E+02
 0.18182026944E+02 0.20568513711E+02 0.23598354522E+02 0.27327893002E+02 0.31661737838E+02
 0.36310207177E+02 0.40813082032E+02 0.44627877661E+02 0.47305732572E+02 0.48727514457E+02
 0.49213419280E+02 0.49289129176E+02 0.49213419280E+02 0.48727514457E+02 0.47305732572E+02
 0.44627877661E+02 0.40813082032E+02 0.36310207177E+02 0.31661737838E+02 0.27327893002E+02
 0.23598354522E+02 0.20568513711E+02 0.18182026944E+02 0.16323986445E+02 0.14905213282E+02
 0.13890355361E+02 0.13278073585E+02 0.91378725669E+01 0.93447307463E+01 0.99805826239E+01
 0.11087817961E+02 0.12737843773E+02 0.15046515035E+02 0.18182027152E+02 0.22328514472E+02
 0.27589596038E+02 0.33873520376E+02 0.40813082240E+02 0.47734736342E+02 0.53727608674E+02
 0.57930139414E+02 0.59928795073E+02 0.60133100100E+02 0.59936435358E+02 0.60133100100E+02
 0.59928795073E+02 0.57930139414E+02 0.53727608674E+02 0.47734736342E+02 0.40813082240E+02
 0.33873520376E+02 0.27589596038E+02 0.22328514472E+02 0.18182027152E+02 0.15046515035E+02
 0.12737843773E+02 0.11087817961E+02 0.99805826239E+01 0.93447307463E+01 0.65406199052E+01
 0.67392867006E+01 0.73602125449E+01 0.84752825004E+01 0.10206113423E+02 0.12737843879E+02
 0.16323986758E+02 0.21245505547E+02 0.27697823627E+02 0.35636841695E+02 0.44627877974E+02
 0.53727608779E+02 0.61526960861E+02 0.66008897174E+02 0.65747759986E+02 0.62773271791E+02
 0.61099624920E+02 0.62773271791E+02 0.65747759986E+02 0.66008897174E+02 0.61526960861E+02
 0.53727608779E+02 0.44627877974E+02 0.35636841695E+02 0.27697823627E+02 0.21245505547E+02
 0.16323986758E+02 0.12737843879E+02 0.10206113423E+02 0.84752825004E+01 0.73602125449E+01
 0.67392867006E+01 0.48656205982E+01 0.50546846763E+01 0.56510144512E+01 0.67409568022E+01
 0.84752823528E+01 0.11087817919E+02 0.14905213448E+02 0.20306251532E+02 0.27589595995E+02
 0.36764883291E+02 0.47305732737E+02 0.57930139372E+02 0.66008897027E+02 0.66957087887E+02
 0.59763296808E+02 0.49755770914E+02 0.45102338132E+02 0.49755770914E+02 0.59763296808E+02
 0.66957087887E+02 0.66008897027E+02 0.57930139372E+02 0.47305732737E+02 0.36764883291E+02
 0.27589595995E+02 0.20306251532E+02 0.14905213448E+02 0.11087817919E+02 0.84752823528E+01
 0.67409568022E+01 0.56510144512E+01 0.50546846763E+01 0.38343411841E+01 0.40158987888E+01
 0.45909417947E+01 0.56510140484E+01 0.73602119945E+01 0.99805821788E+01 0.13890355124E+02
 0.19545647502E+02 0.27327892765E+02 0.37273791823E+02 0.48727514220E+02 0.59928794628E+02
 0.65747759436E+02 0.59763296406E+02 0.42239075917E+02 0.22664028269E+02 0.14089596184E+02
 0.22664028269E+02 0.42239075917E+02 0.59763296406E+02 0.65747759436E+02 0.59928794628E+02
 0.48727514220E+02 0.37273791823E+02 0.27327892765E+02 0.19545647502E+02 0.13890355124E+02
 0.99805821788E+01 0.73602119945E+01 0.56510140484E+01 0.45909417947E+01 0.40158987888E+01
 0.32774195348E+01 0.34543940981E+01 0.40158983433E+01 0.50546838281E+01 0.67392857047E+01
 0.93447298558E+01 0.13278072903E+02 0.19042024568E+02 0.27065597507E+02 0.37384275158E+02
 0.49213418598E+02 0.60133099209E+02 0.62773270795E+02 0.49755770066E+02 0.22664027823E+02
 -.54397117256E+01 -.17456452651E+02 -.54397117256E+01 0.22664027823E+02 0.49755770066E+02
 0.62773270795E+02 0.60133099209E+02 0.49213418598E+02 0.37384275158E+02 0.27065597507E+02
 0.19042024568E+02 0.13278072903E+02 0.93447298558E+01 0.67392857047E+01 0.50546838281E+01
 0.40158983433E+01 0.34543940981E+01 0.31019787883E+01 0.32774193405E+01 0.38343405443E+01
 0.48656195557E+01 0.65406187150E+01 0.91378714821E+01 0.13073454430E+02 0.18865224988E+02
 0.26956777844E+02 0.37378171382E+02 0.49289128299E+02 0.59936434274E+02 0.61099623730E+02
 0.45102337089E+02 0.14089595544E+02 -.17456452846E+02 -.30853729273E+02 -.17456452846E+02
 0.14089595544E+02 0.45102337089E+02 0.61099623730E+02 0.59936434274E+02 0.49289128299E+02
 0.37378171382E+02 0.26956777844E+02 0.18865224988E+02 0.13073454430E+02 0.91378714821E+01
 0.65406187150E+01 0.48656195557E+01 0.38343405443E+01 0.32774193405E+01 0.32774195348E+01
 0.34543940981E+01 0.40158983433E+01 0.50546838281E+01 0.67392857047E+01 0.93447298558E+01
 0.13278072903E+02 0.19042024568E+02 0.27065597507E+02 0.37384275158E+02 0.49213418598E+02
 0.60133099209E+02 0.62773270795E+02 0.49755770066E+02 0.22664027823E+02 -.54397117256E+01
 -.17456452651E+02 -.54397117256E+01 0.22664027823E+02 0.49755770066E+02 0.62773270795E+02
 0.60133099209E+02 0.49213418598E+02 0.37384275158E+02 0.27065597507E+02 0.19042024568E+02
 0.13278072903E+02 0.93447298558E+01 0.67392857047E+01 0.50546838281E+01 0.40158983433E+01
 0.34543940981E+01 0.38343411841E+01 0.40158987888E+01 0.45909417947E+01 0.56510140484E+01
 0.73602119945E+01 0.99805821788E+01 0.13890355124E+02 0.19545647502E+02 0.27327892765E+02
 0.37273791823E+02 0.48727514220E+02 0.59928794628E+02 0.65747759436E+02 0.59763296406E+02
 0.42239075917E+02 0.22664028269E+02 0.14089596184E+02 0.22664028269E+02 0.42239075917E+02
 0.59763296406E+02 0.65747759436E+02 0.59928794628E+02 0.48727514220E+02 0.37273791823E+02
 0.27327892765E+02 0.19545647502E+02 0.13890355124E+02 0.99805821788E+01 0.73602119945E+01
 0.56510140484E+01 0.45909417947E+01 0.40158987888E+01 0.48656205982E+01 0.50546846763E+01
 0.56510144512E+01 0.67409568022E+01 0.84752823528E+01 0.11087817919E+02 0.14905213448E+02
 0.20306251532E+02 0.27589595995E+02 0.36764883291E+02 0.47305732737E+02 0.57930139372E+02
 0.66008897027E+02 0.66957087887E+02 0.59763296808E+02 0.49755770914E+02 0.45102338132E+02
 0.49755770914E+02 0.59763296808E+02 0.66957087887E+02 0.66008897027E+02 0.57930139372E+02
 0.47305732737E+02 0.36764883291E+02 0.27589595995E+02 0.20306251532E+02 0.14905213448E+02
 0.11087817919E+02 0.84752823528E+01 0.67409568022E+01 0.56510144512E+01 0.50546846763E+01
 0.65406199052E+01 0.67392867006E+01 0.73602125449E+01 0.84752825004E+01 0.10206113423E+02
 0.12737843879E+02 0.16323986758E+02 0.21245505547E+02 0.27697823627E+02 0.35636841695E+02
 0.44627877974E+02 0.53727608779E+02 0.61526960861E+02 0.66008897174E+02 0.65747759986E+02
 0.62773271791E+02 0.61099624920E+02 0.62773271791E+02 0.65747759986E+02 0.66008897174E+02
 0.61526960861E+02 0.53727608779E+02 0.44627877974E+02 0.35636841695E+02 0.27697823627E+02
 0.21245505547E+02 0.16323986758E+02 0.12737843879E+02 0.10206113423E+02 0.84752825004E+01
 0.73602125449E+01 0.67392867006E+01 0.91378725669E+01 0.93447307463E+01 0.99805826239E+01
 0.11087817961E+02 0.12737843773E+02 0.15046515035E+02 0.18182027152E+02 0.22328514472E+02
 0.27589596038E+02 0.33873520376E+02 0.40813082240E+02 0.47734736342E+02 0.53727608674E+02
 0.57930139414E+02 0.59928795073E+02 0.60133100100E+02 0.59936435358E+02 0.60133100100E+02
 0.59928795073E+02 0.57930139414E+02 0.53727608674E+02 0.47734736342E+02 0.40813082240E+02
 0.33873520376E+02 0.27589596038E+02 0.22328514472E+02 0.18182027152E+02 0.15046515035E+02
 0.12737843773E+02 0.11087817961E+02 0.99805826239E+01 0.93447307463E+01 0.13073455307E+02
 0.13278073585E+02 0.13890355361E+02 0.14905213282E+02 0.16323986445E+02 0.18182026944E+02
 0.20568513711E+02 0.23598354522E+02 0.27327893002E+02 0.31661737838E+02 0.36310207177E+02
 0.40813082032E+02 0.44627877661E+02 0.47305732572E+02 0.48727514457E+02 0.49213419280E+02
 0.49289129176E+02 0.49213419280E+02 0.48727514457E+02 0.47305732572E+02 0.44627877661E+02
 0.40813082032E+02 0.36310207177E+02 0.31661737838E+02 0.27327893002E+02 0.23598354522E+02
 0.20568513711E+02 0.18182026944E+02 0.16323986445E+02 0.14905213282E+02 0.13890355361E+02
 0.13278073585E+02 0.18865225700E+02 0.19042025085E+02 0.19545647574E+02 0.20306251201E+02
 0.21245505069E+02 0.22328514099E+02 0.23598354357E+02 0.25153109155E+02 0.27065598024E+02
 0.29296596527E+02 0.31661737673E+02 0.33873520003E+02 0.35636841217E+02 0.36764882960E+02
 0.37273791895E+02 0.37384275675E+02 0.37378172093E+02 0.37384275675E+02 0.37273791895E+02
 0.36764882960E+02 0.35636841217E+02 0.33873520003E+02 0.31661737673E+02 0.29296596527E+02
 0.27065598024E+02 0.25153109155E+02 0.23598354357E+02 0.22328514099E+02 0.21245505069E+02
 0.20306251201E+02 0.19545647574E+02 0.19042025085E+02 0.26956778497E+02 0.27065597966E+02
 0.27327892778E+02 0.27589595606E+02 0.27697823090E+02 0.27589595606E+02 0.27327892778E+02
 0.27065597966E+02 0.26956778497E+02 0.27065597966E+02 0.27327892778E+02 0.27589595606E+02
 0.27697823090E+02 0.27589595606E+02 0.27327892778E+02 0.27065597966E+02 0.26956778497E+02
 0.27065597966E+02 0.27327892778E+02 0.27589595606E+02 0.27697823090E+02 0.27589595606E+02
 0.27327892778E+02 0.27065597966E+02 0.26956778497E+02 0.27065597966E+02 0.27327892778E+02
 0.27589595606E+02 0.27697823090E+02 0.27589595606E+02 0.27327892778E+02 0.27065597966E+02
 0.37378172093E+02 0.37384275675E+02 0.37273791895E+02 0.36764882960E+02 0.35636841217E+02
 0.33873520003E+02 0.31661737673E+02 0.29296596527E+02 0.27065598024E+02 0.25153109155E+02
 0.23598354357E+02 0.22328514099E+02 0.21245505069E+02 0.20306251201E+02 0.19545647574E+02
 0.19042025085E+02 0.18865225700E+02 0.19042025085E+02 0.19545647574E+02 0.20306251201E+02
 0.21245505069E+02 0.22328514099E+02 0.23598354357E+02 0.25153109155E+02 0.27065598024E+02
 0.29296596527E+02 0.31661737673E+02 0.33873520003E+02 0.35636841217E+02 0.36764882960E+02
 0.37273791895E+02 0.37384275675E+02 0.49289129176E+02 0.49213419280E+02 0.48727514457E+02
 0.47305732572E+02 0.44627877661E+02 0.40813082032E+02 0.36310207177E+02 0.31661737838E+02
 0.27327893002E+02 0.23598354522E+02 0.20568513711E+02 0.18182026944E+02 0.16323986445E+02
 0.14905213282E+02 0.13890355361E+02 0.13278073585E+02 0.13073455307E+02 0.13278073585E+02
 0.13890355361E+02 0.14905213282E+02 0.16323986445E+02 0.18182026944E+02 0.20568513711E+02
 0.23598354522E+02 0.27327893002E+02 0.31661737838E+02 0.36310207177E+02 0.40813082032E+02
 0.44627877661E+02 0.47305732572E+02 0.48727514457E+02 0.49213419280E+02 0.59936435358E+02
 0.60133100100E+02 0.59928795073E+02 0.57930139414E+02 0.53727608674E+02 0.47734736342E+02
 0.40813082240E+02 0.33873520376E+02 0.27589596038E+02 0.22328514472E+02 0.18182027152E+02
 0.15046515035E+02 0.12737843773E+02 0.11087817961E+02 0.99805826239E+01 0.93447307463E+01
 0.91378725669E+01 0.93447307463E+01 0.99805826239E+01 0.11087817961E+02 0.12737843773E+02
 0.15046515035E+02 0.18182027152E+02 0.22328514472E+02 0.27589596038E+02 0.33873520376E+02
 0.40813082240E+02 0.47734736342E+02 0.53727608674E+02 0.57930139414E+02 0.59928795073E+02
 0.60133100100E+02 0.61099624920E+02 0.62773271791E+02 0.65747759986E+02 0.66008897174E+02
 0.61526960861E+02 0.53727608779E+02 0.44627877974E+02 0.35636841695E+02 0.27697823627E+02
 0.21245505547E+02 0.16323986758E+02 0.12737843879E+02 0.10206113423E+02 0.84752825004E+01
 0.73602125449E+01 0.67392867006E+01 0.65406199052E+01 0.67392867006E+01 0.73602125449E+01
 0.84752825004E+01 0.10206113423E+02 0.12737843879E+02 0.16323986758E+02 0.21245505547E+02
 0.27697823627E+02 0.35636841695E+02 0.44627877974E+02 0.53727608779E+02 0.61526960861E+02
 0.66008897174E+02 0.65747759986E+02 0.62773271791E+02 0.45102338132E+02 0.49755770914E+02
 0.59763296808E+02 0.66957087887E+02 0.66008897027E+02 0.57930139372E+02 0.47305732737E+02
 0.36764883291E+02 0.27589595995E+02 0.20306251532E+02 0.14905213448E+02 0.11087817919E+02
 0.84752823528E+01 0.67409568022E+01 0.56510144512E+01 0.50546846763E+01 0.48656205982E+01
 0.50546846763E+01 0.56510144512E+01 0.67409568022E+01 0.84752823528E+01 0.11087817919E+02
 0.14905213448E+02 0.20306251532E+02 0.27589595995E+02 0.36764883291E+02 0.47305732737E+02
 0.57930139372E+02 0.66008897027E+02 0.66957087887E+02 0.59763296808E+02 0.49755770914E+02
 0.14089596184E+02 0.22664028269E+02 0.42239075917E+02 0.59763296406E+02 0.65747759436E+02
 0.59928794628E+02 0.48727514220E+02 0.37273791823E+02 0.27327892765E+02 0.19545647502E+02
 0.13890355124E+02 0.99805821788E+01 0.73602119945E+01 0.56510140484E+01 0.45909417947E+01
 0.40158987888E+01 0.38343411841E+01 0.40158987888E+01 0.45909417947E+01 0.56510140484E+01
 0.73602119945E+01 0.99805821788E+01 0.13890355124E+02 0.19545647502E+02 0.27327892765E+02
 0.37273791823E+02 0.48727514220E+02 0.59928794628E+02 0.65747759436E+02 0.59763296406E+02
 0.42239075917E+02 0.22664028269E+02 -.17456452651E+02 -.54397117256E+01 0.22664027823E+02
 0.49755770066E+02 0.62773270795E+02 0.60133099209E+02 0.49213418598E+02 0.37384275158E+02
 0.27065597507E+02 0.19042024568E+02 0.13278072903E+02 0.93447298558E+01 0.67392857047E+01
 0.50546838281E+01 0.40158983433E+01 0.34543940981E+01 0.32774195348E+01 0.34543940981E+01
 0.40158983433E+01 0.50546838281E+01 0.67392857047E+01 0.93447298558E+01 0.13278072903E+02
 0.19042024568E+02 0.27065597507E+02 0.37384275158E+02 0.49213418598E+02 0.60133099209E+02
 0.62773270795E+02 0.49755770066E+02 0.22664027823E+02 -.54397117256E+01 -.17456452651E+02
 -.54397117256E+01 0.22664027823E+02 0.49755770066E+02 0.62773270795E+02 0.60133099209E+02
 0.49213418598E+02 0.37384275158E+02 0.27065597507E+02 0.19042024568E+02 0.13278072903E+02
 0.93447298558E+01 0.67392857047E+01 0.50546838281E+01 0.40158983433E+01 0.34543940981E+01
 0.32774195348E+01 0.34543940981E+01 0.40158983433E+01 0.50546838281E+01 0.67392857047E+01
 0.93447298558E+01 0.13278072903E+02 0.19042024568E+02 0.27065597507E+02 0.37384275158E+02
 0.49213418598E+02 0.60133099209E+02 0.62773270795E+02 0.49755770066E+02 0.22664027823E+02
 -.54397117256E+01 -.54397115506E+01 0.85715241406E+01 0.35615715262E+02 0.59698061841E+02
 0.69525968561E+02 0.64689804286E+02 0.52673752444E+02 0.40163153997E+02 0.29296596185E+02
 0.20792863442E+02 0.14614131282E+02 0.10344416254E+02 0.74811506753E+01 0.56037816956E+01
 0.44181759669E+01 0.37373493032E+01 0.34543942731E+01 0.35294384641E+01 0.39845835018E+01
 0.48995795765E+01 0.64230919570E+01 0.88030278300E+01 0.12413780688E+02 0.17726955849E+02
 0.25153108812E+02 0.34729541714E+02 0.45702554077E+02 0.55909715260E+02 0.58896663331E+02
 0.48000766317E+02 0.24979702013E+02 0.20688971984E+01 0.22664028397E+02 0.35615715661E+02
 0.56367269335E+02 0.72417424183E+02 0.75933440797E+02 0.68000991829E+02 0.55347360720E+02
 0.42686000798E+02 0.31661737730E+02 0.22910015929E+02 0.16424325915E+02 0.11845718290E+02
 0.87089077913E+01 0.66065155092E+01 0.52419982399E+01 0.44181763658E+01 0.40158989173E+01
 0.39845839008E+01 0.43366544569E+01 0.51393941041E+01 0.65220190421E+01 0.87013389105E+01
 0.12005199247E+02 0.16848442003E+02 0.23598354413E+02 0.32307544662E+02 0.42357736121E+02
 0.52144059490E+02 0.57370898125E+02 0.52592499788E+02 0.38737928806E+02 0.24979702412E+02
 0.49755770994E+02 0.59698062594E+02 0.72417424537E+02 0.79840004096E+02 0.77798458018E+02
 0.68379926767E+02 0.56403984688E+02 0.44459049585E+02 0.33873520414E+02 0.25254796435E+02
 0.18685251885E+02 0.13907107549E+02 0.10527874246E+02 0.81850179585E+01 0.66065158634E+01
 0.56037824488E+01 0.50546847563E+01 0.48995803297E+01 0.51393944583E+01 0.58270103127E+01
 0.70700086139E+01 0.90490321335E+01 0.12033503435E+02 0.16360193891E+02 0.22328514510E+02
 0.30000103163E+02 0.38934471261E+02 0.47995381288E+02 0.55109377757E+02 0.56721051896E+02
 0.52592500142E+02 0.48000767070E+02 0.62773271841E+02 0.69525969432E+02 0.75933441268E+02
 0.77798458136E+02 0.73655280140E+02 0.65454436626E+02 0.55404852786E+02 0.45096889509E+02
 0.35636841745E+02 0.27656993419E+02 0.21358709759E+02 0.16602127999E+02 0.13087884178E+02
 0.10527874363E+02 0.87089082630E+01 0.74811515460E+01 0.67392867505E+01 0.64230928277E+01
 0.65220195139E+01 0.70700087314E+01 0.81459315716E+01 0.98856784771E+01 0.12490392182E+02
 0.16205833518E+02 0.21245505597E+02 0.27656993419E+02 0.35152659409E+02 0.42983702473E+02
 0.50065344954E+02 0.55109377874E+02 0.57370898597E+02 0.58896664202E+02 0.60133100142E+02
 0.64689805044E+02 0.68000992187E+02 0.68379926772E+02 0.65454436513E+02 0.59796678947E+02
 0.52440215569E+02 0.44459049590E+02 0.36764883375E+02 0.30000103167E+02 0.24446076780E+02
 0.20050431168E+02 0.16602127886E+02 0.13907107553E+02 0.11845718649E+02 0.10344417012E+02
 0.93447307886E+01 0.88030285877E+01 0.87013392692E+01 0.90490321380E+01 0.98856783641E+01
 0.11292558381E+02 0.13398494858E+02 0.16360193895E+02 0.20306251616E+02 0.25254796439E+02
 0.31020607521E+02 0.37147984164E+02 0.42983702360E+02 0.47995381292E+02 0.52144059848E+02
 0.55909716018E+02 0.49213419328E+02 0.52673753000E+02 0.55347360876E+02 0.56403984490E+02
 0.55404852470E+02 0.52440215366E+02 0.47978548843E+02 0.42686000954E+02 0.37273792108E+02
 0.32307544818E+02 0.28044455999E+02 0.24446076578E+02 0.21358709444E+02 0.18685251687E+02
 0.16424326071E+02 0.14614131837E+02 0.13278073633E+02 0.12413781243E+02 0.12005199403E+02
 0.12033503238E+02 0.12490391867E+02 0.13398494656E+02 0.14821936959E+02 0.16848442160E+02
 0.19545647787E+02 0.22910016086E+02 0.26821718966E+02 0.31020607319E+02 0.35152659094E+02
 0.38934471063E+02 0.42357736277E+02 0.45702554632E+02 0.37384275731E+02 0.40163154395E+02
 0.42686000797E+02 0.44459049230E+02 0.45096889037E+02 0.44459049230E+02 0.42686000797E+02
 0.40163154395E+02 0.37384275731E+02 0.34729542112E+02 0.32307544660E+02 0.30000102807E+02
 0.27656992947E+02 0.25254796079E+02 0.22910015928E+02 0.20792863840E+02 0.19042025140E+02
 0.17726956247E+02 0.16848442002E+02 0.16360193535E+02 0.16205833045E+02 0.16360193535E+02
 0.16848442002E+02 0.17726956247E+02 0.19042025140E+02 0.20792863840E+02 0.22910015928E+02
 0.25254796080E+02 0.27656992947E+02 0.30000102807E+02 0.32307544660E+02 0.34729542112E+02
 0.27065598024E+02 0.29296596527E+02 0.31661737673E+02 0.33873520003E+02 0.35636841217E+02
 0.36764882960E+02 0.37273791895E+02 0.37384275675E+02 0.37378172093E+02 0.37384275675E+02
 0.37273791895E+02 0.36764882960E+02 0.35636841217E+02 0.33873520003E+02 0.31661737673E+02
 0.29296596527E+02 0.27065598024E+02 0.25153109155E+02 0.23598354357E+02 0.22328514099E+02
 0.21245505069E+02 0.20306251201E+02 0.19545647574E+02 0.19042025085E+02 0.18865225700E+02
 0.19042025085E+02 0.19545647574E+02 0.20306251201E+02 0.21245505069E+02 0.22328514099E+02
 0.23598354357E+02 0.25153109155E+02 0.19042025140E+02 0.20792863840E+02 0.22910015928E+02
 0.25254796079E+02 0.27656992947E+02 0.30000102807E+02 0.32307544660E+02 0.34729542112E+02
 0.37384275731E+02 0.40163154395E+02 0.42686000797E+02 0.44459049230E+02 0.45096889037E+02
 0.44459049230E+02 0.42686000797E+02 0.40163154395E+02 0.37384275731E+02 0.34729542112E+02
 0.32307544660E+02 0.30000102807E+02 0.27656992947E+02 0.25254796080E+02 0.22910015928E+02
 0.20792863840E+02 0.19042025140E+02 0.17726956247E+02 0.16848442002E+02 0.16360193535E+02
 0.16205833045E+02 0.16360193535E+02 0.16848442002E+02 0.17726956247E+02 0.13278073633E+02
 0.14614131837E+02 0.16424326071E+02 0.18685251687E+02 0.21358709444E+02 0.24446076578E+02
 0.28044455999E+02 0.32307544818E+02 0.37273792108E+02 0.42686000954E+02 0.47978548843E+02
 0.52440215366E+02 0.55404852470E+02 0.56403984490E+02 0.55347360876E+02 0.52673753000E+02
 0.49213419328E+02 0.45702554632E+02 0.42357736277E+02 0.38934471063E+02 0.35152659094E+02
 0.31020607319E+02 0.26821718966E+02 0.22910016086E+02 0.19545647787E+02 0.16848442160E+02
 0.14821936959E+02 0.13398494656E+02 0.12490391867E+02 0.12033503238E+02 0.12005199403E+02
 0.12413781243E+02 0.93447307886E+01 0.10344417012E+02 0.11845718649E+02 0.13907107553E+02
 0.16602127886E+02 0.20050431168E+02 0.24446076780E+02 0.30000103167E+02 0.36764883375E+02
 0.44459049590E+02 0.52440215569E+02 0.59796678947E+02 0.65454436513E+02 0.68379926772E+02
 0.68000992187E+02 0.64689805044E+02 0.60133100142E+02 0.55909716018E+02 0.52144059848E+02
 0.47995381292E+02 0.42983702360E+02 0.37147984164E+02 0.31020607521E+02 0.25254796439E+02
 0.20306251616E+02 0.16360193895E+02 0.13398494858E+02 0.11292558381E+02 0.98856783641E+01
 0.90490321380E+01 0.87013392692E+01 0.88030285877E+01 0.67392867505E+01 0.74811515460E+01
 0.87089082630E+01 0.10527874363E+02 0.13087884178E+02 0.16602127999E+02 0.21358709759E+02
 0.27656993419E+02 0.35636841745E+02 0.45096889509E+02 0.55404852786E+02 0.65454436626E+02
 0.73655280140E+02 0.77798458136E+02 0.75933441268E+02 0.69525969432E+02 0.62773271841E+02
 0.58896664202E+02 0.57370898597E+02 0.55109377874E+02 0.50065344954E+02 0.42983702473E+02
 0.35152659409E+02 0.27656993419E+02 0.21245505597E+02 0.16205833518E+02 0.12490392182E+02
 0.98856784771E+01 0.81459315716E+01 0.70700087314E+01 0.65220195139E+01 0.64230928277E+01
 0.50546847563E+01 0.56037824488E+01 0.66065158634E+01 0.81850179585E+01 0.10527874246E+02
 0.13907107549E+02 0.18685251885E+02 0.25254796435E+02 0.33873520414E+02 0.44459049585E+02
 0.56403984688E+02 0.68379926767E+02 0.77798458018E+02 0.79840004096E+02 0.72417424537E+02
 0.59698062594E+02 0.49755770994E+02 0.48000767070E+02 0.52592500142E+02 0.56721051896E+02
 0.55109377757E+02 0.47995381288E+02 0.38934471261E+02 0.30000103163E+02 0.22328514510E+02
 0.16360193891E+02 0.12033503435E+02 0.90490321335E+01 0.70700086139E+01 0.58270103127E+01
 0.51393944583E+01 0.48995803297E+01 0.40158989173E+01 0.44181763658E+01 0.52419982399E+01
 0.66065155092E+01 0.87089077913E+01 0.11845718290E+02 0.16424325915E+02 0.22910015929E+02
 0.31661737730E+02 0.42686000798E+02 0.55347360720E+02 0.68000991829E+02 0.75933440797E+02
 0.72417424183E+02 0.56367269335E+02 0.35615715661E+02 0.22664028397E+02 0.24979702412E+02
 0.38737928806E+02 0.52592499788E+02 0.57370898125E+02 0.52144059490E+02 0.42357736121E+02
 0.32307544662E+02 0.23598354413E+02 0.16848442003E+02 0.12005199247E+02 0.87013389105E+01
 0.65220190421E+01 0.51393941041E+01 0.43366544569E+01 0.39845839008E+01 0.34543942731E+01
 0.37373493032E+01 0.44181759669E+01 0.56037816956E+01 0.74811506753E+01 0.10344416254E+02
 0.14614131282E+02 0.20792863442E+02 0.29296596185E+02 0.40163153997E+02 0.52673752444E+02
 0.64689804286E+02 0.69525968561E+02 0.59698061841E+02 0.35615715262E+02 0.85715241406E+01
 -.54397115506E+01 0.20688971984E+01 0.24979702013E+02 0.48000766317E+02 0.58896663331E+02
 0.55909715260E+02 0.45702554077E+02 0.34729541714E+02 0.25153108812E+02 0.17726955849E+02
 0.12413780688E+02 0.88030278300E+01 0.64230919570E+01 0.48995795765E+01 0.39845835018E+01
 0.35294384641E+01 0.32774195348E+01 0.34543940981E+01 0.40158983433E+01 0.50546838281E+01
 0.67392857047E+01 0.93447298558E+01 0.13278072903E+02 0.19042024568E+02 0.27065597507E+02
 0.37384275158E+02 0.49213418598E+02 0.60133099209E+02 0.62773270795E+02 0.49755770066E+02
 0.22664027823E+02 -.54397117256E+01 -.17456452651E+02 -.54397117256E+01 0.22664027823E+02
 0.49755770066E+02 0.62773270795E+02 0.60133099209E+02 0.49213418598E+02 0.37384275158E+02
 0.27065597507E+02 0.19042024568E+02 0.13278072903E+02 0.93447298558E+01 0.67392857047E+01
 0.50546838281E+01 0.40158983433E+01 0.34543940981E+01 0.34543942731E+01 0.35294384641E+01
 0.39845835018E+01 0.48995795765E+01 0.64230919570E+01 0.88030278300E+01 0.12413780688E+02
 0.17726955849E+02 0.25153108812E+02 0.34729541714E+02 0.45702554077E+02 0.55909715260E+02
 0.58896663331E+02 0.48000766317E+02 0.24979702013E+02 0.20688971984E+01 -.54397115506E+01
 0.85715241406E+01 0.35615715262E+02 0.59698061841E+02 0.69525968561E+02 0.64689804286E+02
 0.52673752444E+02 0.40163153997E+02 0.29296596185E+02 0.20792863442E+02 0.14614131282E+02
 0.10344416254E+02 0.74811506753E+01 0.56037816956E+01 0.44181759669E+01 0.37373493032E+01
 0.40158989173E+01 0.39845839008E+01 0.43366544569E+01 0.51393941041E+01 0.65220190421E+01
 0.87013389105E+01 0.12005199247E+02 0.16848442003E+02 0.23598354413E+02 0.32307544662E+02
 0.42357736121E+02 0.52144059490E+02 0.57370898125E+02 0.52592499788E+02 0.38737928806E+02
 0.24979702412E+02 0.22664028397E+02 0.35615715661E+02 0.56367269335E+02 0.72417424183E+02