   8   8   1   0
  0.1990251E+02  0.5420000E-09  0.5420000E-09  0.5420000E-09  0.5000000E-15
  1.000000000000000E-004
  CAR 
 diamond Si                              
     11.75498579     -7.05210490  301      6.30229716      1.00000000
     -7.052  0.0000E+00  0.0000E+00
     -6.989  0.0000E+00  0.0000E+00
     -6.927  0.0000E+00  0.0000E+00
     -6.864  0.0000E+00  0.0000E+00
     -6.801  0.0000E+00  0.0000E+00
     -6.739  0.0000E+00  0.0000E+00
     -6.676  0.0000E+00  0.0000E+00
     -6.613  0.2568E-14  0.1610E-15
     -6.551  0.2202E-11  0.1382E-12
     -6.488  0.8856E-09  0.5565E-10
     -6.425  0.1659E-06  0.1046E-07
     -6.363  0.1459E-04  0.9249E-06
     -6.300  0.6069E-03  0.3897E-04
     -6.237  0.1209E-01  0.7967E-03
     -6.174  0.1169E+00  0.8125E-02
     -6.112  0.5593E+00  0.4319E-01
     -6.049  0.1364E+01  0.1287E+00
     -5.986  0.1808E+01  0.2420E+00
     -5.924  0.1555E+01  0.3395E+00
     -5.861  0.1175E+01  0.4132E+00
     -5.798  0.8734E+00  0.4679E+00
     -5.736  0.6745E+00  0.5102E+00
     -5.673  0.7339E+00  0.5562E+00
     -5.610  0.7831E+00  0.6053E+00
     -5.548  0.5356E+00  0.6389E+00
     -5.485  0.3355E+00  0.6599E+00
     -5.422  0.5004E+00  0.6913E+00
     -5.359  0.7315E+00  0.7371E+00
     -5.297  0.6233E+00  0.7762E+00
     -5.234  0.3196E+00  0.7963E+00
     -5.171  0.2181E+00  0.8099E+00
     -5.109  0.4085E+00  0.8355E+00
     -5.046  0.5817E+00  0.8720E+00
     -4.983  0.5230E+00  0.9048E+00
     -4.921  0.3995E+00  0.9298E+00
     -4.858  0.3037E+00  0.9489E+00
     -4.795  0.3386E+00  0.9701E+00
     -4.733  0.6442E+00  0.1010E+01
     -4.670  0.1232E+01  0.1088E+01
     -4.607  0.1789E+01  0.1200E+01
     -4.544  0.1895E+01  0.1319E+01
     -4.482  0.1758E+01  0.1429E+01
     -4.419  0.1570E+01  0.1527E+01
     -4.356  0.1314E+01  0.1610E+01
     -4.294  0.1191E+01  0.1684E+01
     -4.231  0.1193E+01  0.1759E+01
     -4.168  0.1063E+01  0.1826E+01
     -4.106  0.1231E+01  0.1903E+01
     -4.043  0.2794E+01  0.2078E+01
     -3.980  0.5448E+01  0.2420E+01
     -3.918  0.6592E+01  0.2833E+01
     -3.855  0.5577E+01  0.3183E+01
     -3.792  0.4620E+01  0.3472E+01
     -3.730  0.4882E+01  0.3778E+01
     -3.667  0.5231E+01  0.4106E+01
     -3.604  0.4842E+01  0.4410E+01
     -3.541  0.4364E+01  0.4683E+01
     -3.479  0.3563E+01  0.4907E+01
     -3.416  0.2772E+01  0.5080E+01
     -3.353  0.2862E+01  0.5260E+01
     -3.291  0.3112E+01  0.5455E+01
     -3.228  0.2813E+01  0.5631E+01
     -3.165  0.2287E+01  0.5775E+01
     -3.103  0.1843E+01  0.5890E+01
     -3.040  0.1820E+01  0.6004E+01
     -2.977  0.2101E+01  0.6136E+01
     -2.915  0.1846E+01  0.6252E+01
     -2.852  0.1264E+01  0.6331E+01
     -2.789  0.1104E+01  0.6400E+01
     -2.726  0.1440E+01  0.6490E+01
     -2.664  0.1994E+01  0.6615E+01
     -2.601  0.1901E+01  0.6735E+01
     -2.538  0.1223E+01  0.6811E+01
     -2.476  0.1019E+01  0.6875E+01
     -2.413  0.1202E+01  0.6950E+01
     -2.350  0.1371E+01  0.7036E+01
     -2.288  0.1663E+01  0.7141E+01
     -2.225  0.1723E+01  0.7249E+01
     -2.162  0.1361E+01  0.7334E+01
     -2.100  0.8620E+00  0.7388E+01
     -2.037  0.7058E+00  0.7432E+01
     -1.974  0.1673E+01  0.7537E+01
     -1.912  0.4126E+01  0.7796E+01
     -1.849  0.5772E+01  0.8158E+01
     -1.786  0.4170E+01  0.8419E+01
     -1.723  0.1668E+01  0.8524E+01
     -1.661  0.6170E+00  0.8562E+01
     -1.598  0.6382E+00  0.8602E+01
     -1.535  0.1026E+01  0.8667E+01
     -1.473  0.1546E+01  0.8764E+01
     -1.410  0.1845E+01  0.8879E+01
     -1.347  0.1377E+01  0.8966E+01
     -1.285  0.7726E+00  0.9014E+01
     -1.222  0.8663E+00  0.9068E+01
     -1.159  0.1273E+01  0.9148E+01
     -1.097  0.1776E+01  0.9260E+01
     -1.034  0.2826E+01  0.9437E+01
     -0.971  0.3866E+01  0.9679E+01
     -0.908  0.4373E+01  0.9953E+01
     -0.846  0.4827E+01  0.1026E+02
     -0.783  0.4630E+01  0.1055E+02
     -0.720  0.3710E+01  0.1078E+02
     -0.658  0.3299E+01  0.1099E+02
     -0.595  0.3213E+01  0.1119E+02
     -0.532  0.3136E+01  0.1138E+02
     -0.470  0.3436E+01  0.1160E+02
     -0.407  0.3469E+01  0.1182E+02
     -0.344  0.2598E+01  0.1198E+02
     -0.282  0.1800E+01  0.1209E+02
     -0.219  0.1803E+01  0.1221E+02
     -0.156  0.2059E+01  0.1233E+02
     -0.093  0.2029E+01  0.1246E+02
     -0.031  0.1844E+01  0.1258E+02
      0.032  0.1749E+01  0.1269E+02
      0.095  0.1886E+01  0.1280E+02
      0.157  0.1954E+01  0.1293E+02
      0.220  0.1751E+01  0.1304E+02
      0.283  0.1827E+01  0.1315E+02
      0.345  0.2481E+01  0.1331E+02
      0.408  0.3611E+01  0.1353E+02
      0.471  0.4626E+01  0.1382E+02
      0.533  0.4422E+01  0.1410E+02
      0.596  0.4079E+01  0.1436E+02
      0.659  0.4311E+01  0.1463E+02
      0.721  0.3340E+01  0.1484E+02
      0.784  0.1448E+01  0.1493E+02
      0.847  0.3349E+00  0.1495E+02
      0.910  0.9201E-01  0.1495E+02
      0.972  0.1786E+00  0.1497E+02
      1.035  0.2724E+00  0.1498E+02
      1.098  0.2013E+00  0.1499E+02
      1.160  0.7120E-01  0.1500E+02
      1.223  0.1205E-01  0.1500E+02
      1.286  0.2439E-02  0.1500E+02
      1.348  0.2200E-01  0.1500E+02
      1.411  0.1625E+00  0.1501E+02
      1.474  0.6143E+00  0.1505E+02
      1.536  0.1234E+01  0.1513E+02
      1.599  0.1410E+01  0.1522E+02
      1.662  0.1032E+01  0.1528E+02
      1.725  0.6323E+00  0.1532E+02
      1.787  0.4723E+00  0.1535E+02
      1.850  0.4578E+00  0.1538E+02
      1.913  0.5532E+00  0.1541E+02
      1.975  0.8620E+00  0.1547E+02
      2.038  0.1647E+01  0.1557E+02
      2.101  0.3341E+01  0.1578E+02
      2.163  0.5495E+01  0.1612E+02
      2.226  0.6601E+01  0.1654E+02
      2.289  0.6122E+01  0.1692E+02
      2.351  0.4764E+01  0.1722E+02
      2.414  0.3833E+01  0.1746E+02
      2.477  0.4166E+01  0.1772E+02
      2.540  0.4883E+01  0.1803E+02
      2.602  0.4773E+01  0.1833E+02
      2.665  0.3851E+01  0.1857E+02
      2.728  0.3038E+01  0.1876E+02
      2.790  0.2959E+01  0.1895E+02
      2.853  0.3758E+01  0.1918E+02
      2.916  0.4984E+01  0.1949E+02
      2.978  0.6531E+01  0.1990E+02
      3.041  0.9407E+01  0.2049E+02
      3.104  0.1225E+02  0.2126E+02
      3.166  0.1174E+02  0.2200E+02
      3.229  0.8588E+01  0.2253E+02
      3.292  0.5497E+01  0.2288E+02
      3.354  0.3511E+01  0.2310E+02
      3.417  0.2664E+01  0.2327E+02
      3.480  0.2502E+01  0.2342E+02
      3.543  0.2830E+01  0.2360E+02
      3.605  0.3311E+01  0.2381E+02
      3.668  0.3095E+01  0.2400E+02
      3.731  0.2298E+01  0.2415E+02
      3.793  0.2164E+01  0.2428E+02
      3.856  0.2575E+01  0.2444E+02
      3.919  0.2265E+01  0.2459E+02
      3.981  0.1724E+01  0.2469E+02
      4.044  0.2353E+01  0.2484E+02
      4.107  0.4006E+01  0.2509E+02
      4.169  0.5666E+01  0.2545E+02
      4.232  0.5983E+01  0.2582E+02
      4.295  0.4984E+01  0.2613E+02
      4.358  0.4640E+01  0.2643E+02
      4.420  0.5377E+01  0.2676E+02
      4.483  0.5920E+01  0.2713E+02
      4.546  0.6011E+01  0.2751E+02
      4.608  0.6519E+01  0.2792E+02
      4.671  0.6675E+01  0.2834E+02
      4.734  0.6048E+01  0.2872E+02
      4.796  0.5286E+01  0.2905E+02
      4.859  0.4168E+01  0.2931E+02
      4.922  0.3286E+01  0.2952E+02
      4.984  0.3139E+01  0.2971E+02
      5.047  0.3273E+01  0.2992E+02
      5.110  0.3114E+01  0.3011E+02
      5.173  0.2301E+01  0.3026E+02
      5.235  0.1351E+01  0.3034E+02
      5.298  0.9244E+00  0.3040E+02
      5.361  0.9035E+00  0.3046E+02
      5.423  0.1079E+01  0.3052E+02
      5.486  0.1549E+01  0.3062E+02
      5.549  0.1983E+01  0.3075E+02
      5.611  0.1756E+01  0.3086E+02
      5.674  0.1416E+01  0.3094E+02
      5.737  0.1593E+01  0.3104E+02
      5.799  0.1825E+01  0.3116E+02
      5.862  0.2291E+01  0.3130E+02
      5.925  0.3342E+01  0.3151E+02
      5.987  0.3863E+01  0.3175E+02
      6.050  0.2707E+01  0.3192E+02
      6.113  0.1013E+01  0.3199E+02
      6.176  0.1903E+00  0.3200E+02
      6.238  0.1738E-01  0.3200E+02
      6.301  0.7709E-03  0.3200E+02
      6.364  0.7023E-03  0.3200E+02
      6.426  0.1781E-01  0.3200E+02
      6.489  0.2256E+00  0.3202E+02
      6.552  0.1399E+01  0.3210E+02
      6.614  0.4288E+01  0.3237E+02
      6.677  0.6706E+01  0.3279E+02
      6.740  0.5970E+01  0.3317E+02
      6.802  0.4095E+01  0.3342E+02
      6.865  0.3103E+01  0.3362E+02
      6.928  0.2876E+01  0.3380E+02
      6.991  0.3046E+01  0.3399E+02
      7.053  0.2637E+01  0.3415E+02
      7.116  0.1769E+01  0.3427E+02
      7.179  0.1546E+01  0.3436E+02
      7.241  0.1839E+01  0.3448E+02
      7.304  0.2050E+01  0.3461E+02
      7.367  0.1842E+01  0.3472E+02
      7.429  0.1479E+01  0.3481E+02
      7.492  0.1789E+01  0.3493E+02
      7.555  0.2529E+01  0.3508E+02
      7.617  0.3073E+01  0.3528E+02
      7.680  0.3388E+01  0.3549E+02
      7.743  0.3318E+01  0.3570E+02
      7.805  0.3161E+01  0.3590E+02
      7.868  0.2894E+01  0.3608E+02
      7.931  0.2826E+01  0.3625E+02
      7.994  0.3680E+01  0.3649E+02
      8.056  0.4515E+01  0.3677E+02
      8.119  0.4582E+01  0.3706E+02
      8.182  0.4503E+01  0.3734E+02
      8.244  0.4746E+01  0.3764E+02
      8.307  0.5274E+01  0.3797E+02
      8.370  0.5876E+01  0.3833E+02
      8.432  0.6161E+01  0.3872E+02
      8.495  0.5380E+01  0.3906E+02
      8.558  0.4175E+01  0.3932E+02
      8.620  0.3614E+01  0.3955E+02
      8.683  0.3326E+01  0.3975E+02
      8.746  0.2824E+01  0.3993E+02
      8.809  0.2455E+01  0.4009E+02
      8.871  0.2239E+01  0.4023E+02
      8.934  0.1995E+01  0.4035E+02
      8.997  0.1748E+01  0.4046E+02
      9.059  0.1533E+01  0.4056E+02
      9.122  0.1359E+01  0.4064E+02
      9.185  0.1504E+01  0.4074E+02
      9.247  0.1973E+01  0.4086E+02
      9.310  0.2239E+01  0.4100E+02
      9.373  0.2436E+01  0.4115E+02
      9.435  0.2822E+01  0.4133E+02
      9.498  0.2694E+01  0.4150E+02
      9.561  0.1673E+01  0.4160E+02
      9.624  0.6165E+00  0.4164E+02
      9.686  0.1869E+00  0.4165E+02
      9.749  0.2070E+00  0.4167E+02
      9.812  0.2737E+00  0.4168E+02
      9.874  0.1841E+00  0.4170E+02
      9.937  0.6559E-01  0.4170E+02
     10.000  0.5799E-01  0.4170E+02
     10.062  0.1860E+00  0.4172E+02
     10.125  0.3781E+00  0.4174E+02
     10.188  0.4563E+00  0.4177E+02
     10.250  0.3458E+00  0.4179E+02
     10.313  0.1986E+00  0.4180E+02
     10.376  0.2072E+00  0.4181E+02
     10.438  0.2772E+00  0.4183E+02
     10.501  0.2206E+00  0.4185E+02
     10.564  0.1662E+00  0.4186E+02
     10.627  0.2842E+00  0.4187E+02
     10.689  0.4943E+00  0.4190E+02
     10.752  0.6433E+00  0.4195E+02
     10.815  0.5489E+00  0.4198E+02
     10.877  0.2566E+00  0.4200E+02
     10.940  0.5977E-01  0.4200E+02
     11.003  0.6697E-02  0.4200E+02
     11.065  0.3558E-03  0.4200E+02
     11.128  0.8885E-05  0.4200E+02
     11.191  0.1037E-06  0.4200E+02
     11.253  0.5628E-09  0.4200E+02
     11.316  0.1415E-11  0.4200E+02
     11.379  0.1682E-14  0.4200E+02
     11.442  0.0000E+00  0.4200E+02
     11.504  0.0000E+00  0.4200E+02
     11.567  0.0000E+00  0.4200E+02
     11.630  0.0000E+00  0.4200E+02
     11.692  0.0000E+00  0.4200E+02
     11.755  0.0000E+00  0.4200E+02
     11.75498579     -7.05210490  301      6.30229716      1.00000000
     -7.052  0.0000E+00  0.0000E+00  0.0000E+00  0.0000E+00  0.0000E+00  0.0000E+00  0.0000E+00  0.0000E+00  0.0000E+00
     -6.989  0.0000E+00  0.0000E+00  0.0000E+00  0.0000E+00  0.0000E+00  0.0000E+00  0.0000E+00  0.0000E+00  0.0000E+00
     -6.927  0.0000E+00  0.0000E+00  0.0000E+00  0.0000E+00  0.0000E+00  0.0000E+00  0.0000E+00  0.0000E+00  0.0000E+00
     -6.864  0.0000E+00  0.0000E+00  0.0000E+00  0.0000E+00  0.0000E+00  0.0000E+00  0.0000E+00  0.0000E+00  0.0000E+00
     -6.801  0.0000E+00  0.0000E+00  0.0000E+00  0.0000E+00  0.0000E+00  0.0000E+00  0.0000E+00  0.0000E+00  0.0000E+00
     -6.739  0.0000E+00  0.0000E+00  0.0000E+00  0.0000E+00  0.0000E+00  0.0000E+00  0.0000E+00  0.0000E+00  0.0000E+00
     -6.676  0.0000E+00  0.0000E+00  0.0000E+00  0.0000E+00  0.0000E+00  0.0000E+00  0.0000E+00  0.0000E+00  0.0000E+00
     -6.613  0.1378E-15  0.1666E-20  0.1666E-20  0.2037E-23  0.0000E+00  0.0000E+00  0.0000E+00  0.0000E+00  0.0000E+00
     -6.551  0.1182E-12  0.2418E-17  0.2066E-17  0.4862E-18  0.0000E+00  0.0000E+00  0.0000E+00  0.0000E+00  0.0000E+00
     -6.488  0.4753E-10  0.1447E-14  0.1201E-14  0.3232E-15  0.0000E+00  0.0000E+00  0.0000E+00  0.0000E+00  0.0000E+00
     -6.425  0.8906E-08  0.4046E-12  0.3253E-12  0.9958E-13  0.0000E+00  0.0000E+00  0.0000E+00  0.0000E+00  0.0000E+00
     -6.363  0.7829E-06  0.5313E-10  0.4126E-10  0.1424E-10  0.0000E+00  0.0000E+00  0.0000E+00  0.0000E+00  0.0000E+00
     -6.300  0.3257E-04  0.3296E-08  0.2468E-08  0.9497E-09  0.0000E+00  0.0000E+00  0.0000E+00  0.0000E+00  0.0000E+00
     -6.237  0.6487E-03  0.9746E-07  0.7047E-07  0.2970E-07  0.0000E+00  0.0000E+00  0.0000E+00  0.0000E+00  0.0000E+00
     -6.174  0.6273E-02  0.1395E-05  0.9798E-06  0.4400E-06  0.0000E+00  0.0000E+00  0.0000E+00  0.0000E+00  0.0000E+00
     -6.112  0.3001E-01  0.9971E-05  0.6905E-05  0.3159E-05  0.0000E+00  0.0000E+00  0.0000E+00  0.0000E+00  0.0000E+00
     -6.049  0.7315E-01  0.3808E-04  0.2663E-04  0.1180E-04  0.0000E+00  0.0000E+00  0.0000E+00  0.0000E+00  0.0000E+00
     -5.986  0.9696E-01  0.8979E-04  0.6385E-04  0.2779E-04  0.0000E+00  0.0000E+00  0.0000E+00  0.0000E+00  0.0000E+00
     -5.924  0.8329E-01  0.1585E-03  0.1101E-03  0.5133E-04  0.0000E+00  0.0000E+00  0.0000E+00  0.0000E+00  0.0000E+00
     -5.861  0.6285E-01  0.2213E-03  0.1499E-03  0.6942E-04  0.0000E+00  0.0000E+00  0.0000E+00  0.0000E+00  0.0000E+00
     -5.798  0.4665E-01  0.2337E-03  0.1672E-03  0.6633E-04  0.0000E+00  0.0000E+00  0.0000E+00  0.0000E+00  0.0000E+00
     -5.736  0.3595E-01  0.2435E-03  0.1813E-03  0.8195E-04  0.0000E+00  0.0000E+00  0.0000E+00  0.0000E+00  0.0000E+00
     -5.673  0.3905E-01  0.3541E-03  0.2412E-03  0.1280E-03  0.0000E+00  0.0000E+00  0.0000E+00  0.0000E+00  0.0000E+00
     -5.610  0.4163E-01  0.4362E-03  0.2825E-03  0.1274E-03  0.0000E+00  0.0000E+00  0.0000E+00  0.0000E+00  0.0000E+00
     -5.548  0.2846E-01  0.3200E-03  0.2148E-03  0.7764E-04  0.0000E+00  0.0000E+00  0.0000E+00  0.0000E+00  0.0000E+00
     -5.485  0.1780E-01  0.2212E-03  0.1766E-03  0.7827E-04  0.0000E+00  0.0000E+00  0.0000E+00  0.0000E+00  0.0000E+00
     -5.422  0.2649E-01  0.3852E-03  0.3148E-03  0.1596E-03  0.0000E+00  0.0000E+00  0.0000E+00  0.0000E+00  0.0000E+00
     -5.359  0.3870E-01  0.6387E-03  0.4479E-03  0.2178E-03  0.0000E+00  0.0000E+00  0.0000E+00  0.0000E+00  0.0000E+00
     -5.297  0.3296E-01  0.6149E-03  0.3488E-03  0.1727E-03  0.0000E+00  0.0000E+00  0.0000E+00  0.0000E+00  0.0000E+00
     -5.234  0.1689E-01  0.3499E-03  0.1717E-03  0.8728E-04  0.0000E+00  0.0000E+00  0.0000E+00  0.0000E+00  0.0000E+00
     -5.171  0.1151E-01  0.2435E-03  0.1859E-03  0.6807E-04  0.0000E+00  0.0000E+00  0.0000E+00  0.0000E+00  0.0000E+00
     -5.109  0.2154E-01  0.4365E-03  0.4183E-03  0.1588E-03  0.0000E+00  0.0000E+00  0.0000E+00  0.0000E+00  0.0000E+00
     -5.046  0.3067E-01  0.6340E-03  0.5647E-03  0.2649E-03  0.0000E+00  0.0000E+00  0.0000E+00  0.0000E+00  0.0000E+00
     -4.983  0.2756E-01  0.6676E-03  0.4292E-03  0.2617E-03  0.0000E+00  0.0000E+00  0.0000E+00  0.0000E+00  0.0000E+00
     -4.921  0.2103E-01  0.6491E-03  0.2535E-03  0.1950E-03  0.0000E+00  0.0000E+00  0.0000E+00  0.0000E+00  0.0000E+00
     -4.858  0.1598E-01  0.5375E-03  0.2230E-03  0.1271E-03  0.0000E+00  0.0000E+00  0.0000E+00  0.0000E+00  0.0000E+00
     -4.795  0.1781E-01  0.5297E-03  0.4092E-03  0.1353E-03  0.0000E+00  0.0000E+00  0.0000E+00  0.0000E+00  0.0000E+00
     -4.733  0.3396E-01  0.8655E-03  0.8361E-03  0.4081E-03  0.0000E+00  0.0000E+00  0.0000E+00  0.0000E+00  0.0000E+00
     -4.670  0.6511E-01  0.1546E-02  0.1504E-02  0.1031E-02  0.0000E+00  0.0000E+00  0.0000E+00  0.0000E+00  0.0000E+00
     -4.607  0.9457E-01  0.2333E-02  0.2167E-02  0.1528E-02  0.0000E+00  0.0000E+00  0.0000E+00  0.0000E+00  0.0000E+00
     -4.544  0.1001E+00  0.2868E-02  0.2329E-02  0.1408E-02  0.0000E+00  0.0000E+00  0.0000E+00  0.0000E+00  0.0000E+00
     -4.482  0.9273E-01  0.3217E-02  0.2190E-02  0.1040E-02  0.0000E+00  0.0000E+00  0.0000E+00  0.0000E+00  0.0000E+00
     -4.419  0.8271E-01  0.3135E-02  0.2125E-02  0.7678E-03  0.0000E+00  0.0000E+00  0.0000E+00  0.0000E+00  0.0000E+00
     -4.356  0.6915E-01  0.2653E-02  0.2013E-02  0.5846E-03  0.0000E+00  0.0000E+00  0.0000E+00  0.0000E+00  0.0000E+00
     -4.294  0.6269E-01  0.2509E-02  0.1825E-02  0.5925E-03  0.0000E+00  0.0000E+00  0.0000E+00  0.0000E+00  0.0000E+00
     -4.231  0.6291E-01  0.2613E-02  0.1717E-02  0.7080E-03  0.0000E+00  0.0000E+00  0.0000E+00  0.0000E+00  0.0000E+00
     -4.168  0.5607E-01  0.2306E-02  0.1647E-02  0.6601E-03  0.0000E+00  0.0000E+00  0.0000E+00  0.0000E+00  0.0000E+00
     -4.106  0.6476E-01  0.2697E-02  0.2341E-02  0.7161E-03  0.0000E+00  0.0000E+00  0.0000E+00  0.0000E+00  0.0000E+00
     -4.043  0.1469E+00  0.6362E-02  0.5715E-02  0.1611E-02  0.0000E+00  0.0000E+00  0.0000E+00  0.0000E+00  0.0000E+00
     -3.980  0.2865E+00  0.1261E-01  0.1115E-01  0.3192E-02  0.0000E+00  0.0000E+00  0.0000E+00  0.0000E+00  0.0000E+00
     -3.918  0.3472E+00  0.1528E-01  0.1346E-01  0.3987E-02  0.0000E+00  0.0000E+00  0.0000E+00  0.0000E+00  0.0000E+00
     -3.855  0.2949E+00  0.1254E-01  0.1143E-01  0.3678E-02  0.0000E+00  0.0000E+00  0.0000E+00  0.0000E+00  0.0000E+00
     -3.792  0.2465E+00  0.9508E-02  0.9400E-02  0.3677E-02  0.0000E+00  0.0000E+00  0.0000E+00  0.0000E+00  0.0000E+00
     -3.730  0.2641E+00  0.8764E-02  0.9299E-02  0.4825E-02  0.0000E+00  0.0000E+00  0.0000E+00  0.0000E+00  0.0000E+00
     -3.667  0.2858E+00  0.8632E-02  0.9120E-02  0.5872E-02  0.0000E+00  0.0000E+00  0.0000E+00  0.0000E+00  0.0000E+00
     -3.604  0.2644E+00  0.8633E-02  0.8224E-02  0.5734E-02  0.0000E+00  0.0000E+00  0.0000E+00  0.0000E+00  0.0000E+00
     -3.541  0.2358E+00  0.9214E-02  0.7740E-02  0.5285E-02  0.0000E+00  0.0000E+00  0.0000E+00  0.0000E+00  0.0000E+00
     -3.479  0.1913E+00  0.8042E-02  0.6549E-02  0.4595E-02  0.0000E+00  0.0000E+00  0.0000E+00  0.0000E+00  0.0000E+00
     -3.416  0.1489E+00  0.5885E-02  0.5364E-02  0.4153E-02  0.0000E+00  0.0000E+00  0.0000E+00  0.0000E+00  0.0000E+00
     -3.353  0.1541E+00  0.5645E-02  0.5914E-02  0.4711E-02  0.0000E+00  0.0000E+00  0.0000E+00  0.0000E+00  0.0000E+00
     -3.291  0.1676E+00  0.6208E-02  0.6594E-02  0.5206E-02  0.0000E+00  0.0000E+00  0.0000E+00  0.0000E+00  0.0000E+00
     -3.228  0.1510E+00  0.5709E-02  0.6025E-02  0.5075E-02  0.0000E+00  0.0000E+00  0.0000E+00  0.0000E+00  0.0000E+00
     -3.165  0.1223E+00  0.4689E-02  0.5022E-02  0.4531E-02  0.0000E+00  0.0000E+00  0.0000E+00  0.0000E+00  0.0000E+00
     -3.103  0.9780E-01  0.4525E-02  0.4192E-02  0.3426E-02  0.0000E+00  0.0000E+00  0.0000E+00  0.0000E+00  0.0000E+00
     -3.040  0.9492E-01  0.5652E-02  0.4582E-02  0.2913E-02  0.0000E+00  0.0000E+00  0.0000E+00  0.0000E+00  0.0000E+00
     -2.977  0.1088E+00  0.6197E-02  0.5847E-02  0.3804E-02  0.0000E+00  0.0000E+00  0.0000E+00  0.0000E+00  0.0000E+00
     -2.915  0.9567E-01  0.4515E-02  0.5354E-02  0.4129E-02  0.0000E+00  0.0000E+00  0.0000E+00  0.0000E+00  0.0000E+00
     -2.852  0.6592E-01  0.2252E-02  0.3831E-02  0.3494E-02  0.0000E+00  0.0000E+00  0.0000E+00  0.0000E+00  0.0000E+00
     -2.789  0.5778E-01  0.1665E-02  0.3543E-02  0.3320E-02  0.0000E+00  0.0000E+00  0.0000E+00  0.0000E+00  0.0000E+00
     -2.726  0.7417E-01  0.3157E-02  0.4953E-02  0.3864E-02  0.0000E+00  0.0000E+00  0.0000E+00  0.0000E+00  0.0000E+00
     -2.664  0.1010E+00  0.5219E-02  0.7253E-02  0.5072E-02  0.0000E+00  0.0000E+00  0.0000E+00  0.0000E+00  0.0000E+00
     -2.601  0.9578E-01  0.5233E-02  0.6868E-02  0.4979E-02  0.0000E+00  0.0000E+00  0.0000E+00  0.0000E+00  0.0000E+00
     -2.538  0.6149E-01  0.3986E-02  0.3917E-02  0.3276E-02  0.0000E+00  0.0000E+00  0.0000E+00  0.0000E+00  0.0000E+00
     -2.476  0.5140E-01  0.3525E-02  0.2843E-02  0.3147E-02  0.0000E+00  0.0000E+00  0.0000E+00  0.0000E+00  0.0000E+00
     -2.413  0.6080E-01  0.3195E-02  0.3803E-02  0.4305E-02  0.0000E+00  0.0000E+00  0.0000E+00  0.0000E+00  0.0000E+00
     -2.350  0.6875E-01  0.3881E-02  0.5080E-02  0.4423E-02  0.0000E+00  0.0000E+00  0.0000E+00  0.0000E+00  0.0000E+00
     -2.288  0.8230E-01  0.5678E-02  0.6701E-02  0.4569E-02  0.0000E+00  0.0000E+00  0.0000E+00  0.0000E+00  0.0000E+00
     -2.225  0.8523E-01  0.5154E-02  0.7002E-02  0.5587E-02  0.0000E+00  0.0000E+00  0.0000E+00  0.0000E+00  0.0000E+00
     -2.162  0.6784E-01  0.2483E-02  0.5352E-02  0.6070E-02  0.0000E+00  0.0000E+00  0.0000E+00  0.0000E+00  0.0000E+00
     -2.100  0.4337E-01  0.7819E-03  0.3019E-02  0.4935E-02  0.0000E+00  0.0000E+00  0.0000E+00  0.0000E+00  0.0000E+00
     -2.037  0.3544E-01  0.9061E-03  0.1742E-02  0.4753E-02  0.0000E+00  0.0000E+00  0.0000E+00  0.0000E+00  0.0000E+00
     -1.974  0.8220E-01  0.4414E-02  0.4563E-02  0.9820E-02  0.0000E+00  0.0000E+00  0.0000E+00  0.0000E+00  0.0000E+00
     -1.912  0.2007E+00  0.1314E-01  0.1315E-01  0.2121E-01  0.0000E+00  0.0000E+00  0.0000E+00  0.0000E+00  0.0000E+00
     -1.849  0.2798E+00  0.1918E-01  0.1918E-01  0.2857E-01  0.0000E+00  0.0000E+00  0.0000E+00  0.0000E+00  0.0000E+00
     -1.786  0.2019E+00  0.1351E-01  0.1351E-01  0.2154E-01  0.0000E+00  0.0000E+00  0.0000E+00  0.0000E+00  0.0000E+00
     -1.723  0.8055E-01  0.4629E-02  0.4674E-02  0.1030E-01  0.0000E+00  0.0000E+00  0.0000E+00  0.0000E+00  0.0000E+00
     -1.661  0.2958E-01  0.8928E-03  0.1283E-02  0.5343E-02  0.0000E+00  0.0000E+00  0.0000E+00  0.0000E+00  0.0000E+00
     -1.598  0.3048E-01  0.4519E-03  0.2063E-02  0.5545E-02  0.0000E+00  0.0000E+00  0.0000E+00  0.0000E+00  0.0000E+00
     -1.535  0.4912E-01  0.1538E-02  0.4716E-02  0.6791E-02  0.0000E+00  0.0000E+00  0.0000E+00  0.0000E+00  0.0000E+00
     -1.473  0.7400E-01  0.4634E-02  0.7634E-02  0.7578E-02  0.0000E+00  0.0000E+00  0.0000E+00  0.0000E+00  0.0000E+00
     -1.410  0.8813E-01  0.7310E-02  0.8657E-02  0.7935E-02  0.0000E+00  0.0000E+00  0.0000E+00  0.0000E+00  0.0000E+00
     -1.347  0.6566E-01  0.5835E-02  0.6052E-02  0.6074E-02  0.0000E+00  0.0000E+00  0.0000E+00  0.0000E+00  0.0000E+00
     -1.285  0.3677E-01  0.3419E-02  0.3169E-02  0.3662E-02  0.0000E+00  0.0000E+00  0.0000E+00  0.0000E+00  0.0000E+00
     -1.222  0.4064E-01  0.3930E-02  0.3539E-02  0.4559E-02  0.0000E+00  0.0000E+00  0.0000E+00  0.0000E+00  0.0000E+00
     -1.159  0.5564E-01  0.5898E-02  0.5805E-02  0.7921E-02  0.0000E+00  0.0000E+00  0.0000E+00  0.0000E+00  0.0000E+00
     -1.097  0.6520E-01  0.1019E-01  0.1043E-01  0.1242E-01  0.0000E+00  0.0000E+00  0.0000E+00  0.0000E+00  0.0000E+00
     -1.034  0.9528E-01  0.1863E-01  0.1926E-01  0.1878E-01  0.0000E+00  0.0000E+00  0.0000E+00  0.0000E+00  0.0000E+00
     -0.971  0.1368E+00  0.2458E-01  0.2663E-01  0.2389E-01  0.0000E+00  0.0000E+00  0.0000E+00  0.0000E+00  0.0000E+00
     -0.908  0.1578E+00  0.2564E-01  0.3003E-01  0.2849E-01  0.0000E+00  0.0000E+00  0.0000E+00  0.0000E+00  0.0000E+00
     -0.846  0.1677E+00  0.2722E-01  0.3361E-01  0.3552E-01  0.0000E+00  0.0000E+00  0.0000E+00  0.0000E+00  0.0000E+00
     -0.783  0.1580E+00  0.2567E-01  0.3243E-01  0.3604E-01  0.0000E+00  0.0000E+00  0.0000E+00  0.0000E+00  0.0000E+00
     -0.720  0.1265E+00  0.2144E-01  0.2590E-01  0.2864E-01  0.0000E+00  0.0000E+00  0.0000E+00  0.0000E+00  0.0000E+00
     -0.658  0.1147E+00  0.2117E-01  0.2238E-01  0.2360E-01  0.0000E+00  0.0000E+00  0.0000E+00  0.0000E+00  0.0000E+00
     -0.595  0.1205E+00  0.2180E-01  0.2035E-01  0.1997E-01  0.0000E+00  0.0000E+00  0.0000E+00  0.0000E+00  0.0000E+00
     -0.532  0.1250E+00  0.2220E-01  0.1853E-01  0.1722E-01  0.0000E+00  0.0000E+00  0.0000E+00  0.0000E+00  0.0000E+00
     -0.470  0.1341E+00  0.2422E-01  0.2027E-01  0.2080E-01  0.0000E+00  0.0000E+00  0.0000E+00  0.0000E+00  0.0000E+00
     -0.407  0.1284E+00  0.2363E-01  0.2126E-01  0.2432E-01  0.0000E+00  0.0000E+00  0.0000E+00  0.0000E+00  0.0000E+00
     -0.344  0.9142E-01  0.1759E-01  0.1661E-01  0.1986E-01  0.0000E+00  0.0000E+00  0.0000E+00  0.0000E+00  0.0000E+00
     -0.282  0.6062E-01  0.1229E-01  0.1199E-01  0.1459E-01  0.0000E+00  0.0000E+00  0.0000E+00  0.0000E+00  0.0000E+00
     -0.219  0.6149E-01  0.1243E-01  0.1238E-01  0.1414E-01  0.0000E+00  0.0000E+00  0.0000E+00  0.0000E+00  0.0000E+00
     -0.156  0.7251E-01  0.1435E-01  0.1434E-01  0.1507E-01  0.0000E+00  0.0000E+00  0.0000E+00  0.0000E+00  0.0000E+00
     -0.093  0.7203E-01  0.1387E-01  0.1380E-01  0.1549E-01  0.0000E+00  0.0000E+00  0.0000E+00  0.0000E+00  0.0000E+00
     -0.031  0.6556E-01  0.1216E-01  0.1159E-01  0.1569E-01  0.0000E+00  0.0000E+00  0.0000E+00  0.0000E+00  0.0000E+00
      0.032  0.6431E-01  0.1209E-01  0.9984E-02  0.1475E-01  0.0000E+00  0.0000E+00  0.0000E+00  0.0000E+00  0.0000E+00
      0.095  0.7258E-01  0.1405E-01  0.1041E-01  0.1424E-01  0.0000E+00  0.0000E+00  0.0000E+00  0.0000E+00  0.0000E+00
      0.157  0.7620E-01  0.1417E-01  0.1115E-01  0.1462E-01  0.0000E+00  0.0000E+00  0.0000E+00  0.0000E+00  0.0000E+00
      0.220  0.6720E-01  0.1162E-01  0.1042E-01  0.1445E-01  0.0000E+00  0.0000E+00  0.0000E+00  0.0000E+00  0.0000E+00
      0.283  0.6979E-01  0.1126E-01  0.1102E-01  0.1635E-01  0.0000E+00  0.0000E+00  0.0000E+00  0.0000E+00  0.0000E+00
      0.345  0.9578E-01  0.1486E-01  0.1473E-01  0.2293E-01  0.0000E+00  0.0000E+00  0.0000E+00  0.0000E+00  0.0000E+00
      0.408  0.1396E+00  0.2160E-01  0.2093E-01  0.3434E-01  0.0000E+00  0.0000E+00  0.0000E+00  0.0000E+00  0.0000E+00
      0.471  0.1775E+00  0.2843E-01  0.2657E-01  0.4443E-01  0.0000E+00  0.0000E+00  0.0000E+00  0.0000E+00  0.0000E+00
      0.533  0.1630E+00  0.2934E-01  0.2675E-01  0.4191E-01  0.0000E+00  0.0000E+00  0.0000E+00  0.0000E+00  0.0000E+00
      0.596  0.1343E+00  0.3090E-01  0.2872E-01  0.3772E-01  0.0000E+00  0.0000E+00  0.0000E+00  0.0000E+00  0.0000E+00
      0.659  0.1308E+00  0.3493E-01  0.3329E-01  0.3957E-01  0.0000E+00  0.0000E+00  0.0000E+00  0.0000E+00  0.0000E+00
      0.721  0.1003E+00  0.2719E-01  0.2607E-01  0.3084E-01  0.0000E+00  0.0000E+00  0.0000E+00  0.0000E+00  0.0000E+00
      0.784  0.4386E-01  0.1167E-01  0.1120E-01  0.1349E-01  0.0000E+00  0.0000E+00  0.0000E+00  0.0000E+00  0.0000E+00
      0.847  0.1028E-01  0.2653E-02  0.2557E-02  0.3156E-02  0.0000E+00  0.0000E+00  0.0000E+00  0.0000E+00  0.0000E+00
      0.910  0.3124E-02  0.6742E-03  0.6645E-03  0.8912E-03  0.0000E+00  0.0000E+00  0.0000E+00  0.0000E+00  0.0000E+00
      0.972  0.6435E-02  0.1248E-02  0.1247E-02  0.1750E-02  0.0000E+00  0.0000E+00  0.0000E+00  0.0000E+00  0.0000E+00
      1.035  0.9832E-02  0.1901E-02  0.1901E-02  0.2670E-02  0.0000E+00  0.0000E+00  0.0000E+00  0.0000E+00  0.0000E+00
      1.098  0.7267E-02  0.1405E-02  0.1405E-02  0.1974E-02  0.0000E+00  0.0000E+00  0.0000E+00  0.0000E+00  0.0000E+00
      1.160  0.2570E-02  0.4968E-03  0.4968E-03  0.6980E-03  0.0000E+00  0.0000E+00  0.0000E+00  0.0000E+00  0.0000E+00
      1.223  0.4335E-03  0.8430E-04  0.8430E-04  0.1183E-03  0.0000E+00  0.0000E+00  0.0000E+00  0.0000E+00  0.0000E+00
      1.286  0.4497E-04  0.2355E-04  0.2344E-04  0.2918E-04  0.0000E+00  0.0000E+00  0.0000E+00  0.0000E+00  0.0000E+00
      1.348  0.1884E-03  0.2492E-03  0.2469E-03  0.2847E-03  0.0000E+00  0.0000E+00  0.0000E+00  0.0000E+00  0.0000E+00
      1.411  0.1661E-02  0.1829E-02  0.1805E-02  0.2032E-02  0.0000E+00  0.0000E+00  0.0000E+00  0.0000E+00  0.0000E+00
      1.474  0.7413E-02  0.6834E-02  0.6720E-02  0.7432E-02  0.0000E+00  0.0000E+00  0.0000E+00  0.0000E+00  0.0000E+00
      1.536  0.1721E-01  0.1347E-01  0.1321E-01  0.1462E-01  0.0000E+00  0.0000E+00  0.0000E+00  0.0000E+00  0.0000E+00
      1.599  0.2163E-01  0.1504E-01  0.1475E-01  0.1674E-01  0.0000E+00  0.0000E+00  0.0000E+00  0.0000E+00  0.0000E+00
      1.662  0.1511E-01  0.1110E-01  0.1095E-01  0.1244E-01  0.0000E+00  0.0000E+00  0.0000E+00  0.0000E+00  0.0000E+00
      1.725  0.5911E-02  0.7576E-02  0.7537E-02  0.7525E-02  0.0000E+00  0.0000E+00  0.0000E+00  0.0000E+00  0.0000E+00
      1.787  0.1601E-02  0.6055E-02  0.6050E-02  0.6035E-02  0.0000E+00  0.0000E+00  0.0000E+00  0.0000E+00  0.0000E+00
      1.850  0.1079E-02  0.5392E-02  0.5382E-02  0.7020E-02  0.0000E+00  0.0000E+00  0.0000E+00  0.0000E+00  0.0000E+00
      1.913  0.1616E-02  0.6536E-02  0.6465E-02  0.8504E-02  0.0000E+00  0.0000E+00  0.0000E+00  0.0000E+00  0.0000E+00
      1.975  0.2632E-02  0.1106E-01  0.1070E-01  0.1204E-01  0.0000E+00  0.0000E+00  0.0000E+00  0.0000E+00  0.0000E+00
      2.038  0.5198E-02  0.2082E-01  0.1989E-01  0.2420E-01  0.0000E+00  0.0000E+00  0.0000E+00  0.0000E+00  0.0000E+00
      2.101  0.1235E-01  0.3803E-01  0.3714E-01  0.5576E-01  0.0000E+00  0.0000E+00  0.0000E+00  0.0000E+00  0.0000E+00
      2.163  0.2390E-01  0.5684E-01  0.5721E-01  0.9966E-01  0.0000E+00  0.0000E+00  0.0000E+00  0.0000E+00  0.0000E+00
      2.226  0.3239E-01  0.6643E-01  0.6745E-01  0.1220E+00  0.0000E+00  0.0000E+00  0.0000E+00  0.0000E+00  0.0000E+00
      2.289  0.3137E-01  0.6367E-01  0.6409E-01  0.1106E+00  0.0000E+00  0.0000E+00  0.0000E+00  0.0000E+00  0.0000E+00
      2.351  0.2356E-01  0.5131E-01  0.5084E-01  0.8522E-01  0.0000E+00  0.0000E+00  0.0000E+00  0.0000E+00  0.0000E+00
      2.414  0.1969E-01  0.4248E-01  0.4121E-01  0.6853E-01  0.0000E+00  0.0000E+00  0.0000E+00  0.0000E+00  0.0000E+00
      2.477  0.2577E-01  0.4780E-01  0.4698E-01  0.7084E-01  0.0000E+00  0.0000E+00  0.0000E+00  0.0000E+00  0.0000E+00
      2.540  0.3403E-01  0.5671E-01  0.5715E-01  0.7990E-01  0.0000E+00  0.0000E+00  0.0000E+00  0.0000E+00  0.0000E+00
      2.602  0.3269E-01  0.5548E-01  0.5584E-01  0.7915E-01  0.0000E+00  0.0000E+00  0.0000E+00  0.0000E+00  0.0000E+00
      2.665  0.2458E-01  0.4391E-01  0.4320E-01  0.6794E-01  0.0000E+00  0.0000E+00  0.0000E+00  0.0000E+00  0.0000E+00
      2.728  0.1891E-01  0.3338E-01  0.3274E-01  0.5723E-01  0.0000E+00  0.0000E+00  0.0000E+00  0.0000E+00  0.0000E+00