    8    8    1    1
  0.1990251E+02  0.5420000E-09  0.5420000E-09  0.5420000E-09  0.5000000E-15
  1.000000000000000E-004
  CAR 
 diamond Si                              
   32   40   21
 
  0.5000000E+00  0.5000000E+00  0.5000000E+00  0.2500000E-01
   1       -3.6992
   2       -3.6992
   3       -3.6992
   4       -3.6992
   5       -1.0506
   6       -1.0506
   7       -1.0506
   8       -1.0506
   9        4.7583
  10        4.7583
  11        4.7583
  12        4.7583
  13        4.7583
  14        4.7583
  15        4.7583
  16        4.7583
  17        7.5221
  18        7.5221
  19        7.5221
  20        7.5221
  21        9.2876
 
  0.4444444E+00  0.4444444E+00  0.4444444E+00  0.2500000E-01
   1       -3.8647
   2       -3.6829
   3       -3.6829
   4       -3.6829
   5       -1.0028
   6       -1.0028
   7       -1.0028
   8       -0.8083
   9        4.4655
  10        4.4655
  11        4.4655
  12        4.6744
  13        4.6744
  14        4.6744
  15        4.7807
  16        4.7807
  17        7.5496
  18        7.8047
  19        7.8047
  20        7.8047
  21        9.2272
 
  0.3888889E+00  0.3888889E+00  0.3888889E+00  0.2500000E-01
   1       -4.2398
   2       -3.6318
   3       -3.6318
   4       -3.6318
   5       -0.8682
   6       -0.8682
   7       -0.8682
   8       -0.2032
   9        3.8394
  10        3.8394
  11        3.8394
  12        4.4563
  13        4.4563
  14        4.4563
  15        4.8475
  16        4.8475
  17        7.6247
  18        8.1603
  19        8.1603
  20        8.1603
  21        9.3501
 
  0.3333333E+00  0.3333333E+00  0.3333333E+00  0.2500000E-01
   1       -4.6653
   2       -3.5403
   3       -3.5403
   4       -3.5403
   5       -0.6766
   6       -0.6766
   7       -0.6766
   8        0.6012
   9        3.1657
  10        3.1657
  11        3.1657
  12        4.1717
  13        4.1717
  14        4.1717
  15        4.9575
  16        4.9575
  17        7.7480
  18        7.9960
  19        7.9960
  20        7.9960
  21        9.4612
 
  0.2777778E+00  0.2777778E+00  0.2777778E+00  0.2500000E-01
   1       -5.0662
   2       -3.4017
   3       -3.4017
   4       -3.4017
   5       -0.4943
   6       -0.4943
   7       -0.4943
   8        1.5253
   9        2.5966
  10        2.5966
  11        2.5966
  12        3.8766
  13        3.8766
  14        3.8766
  15        5.1104
  16        5.1104
  17        7.6431
  18        7.6431
  19        7.6431
  20        7.9151
  21        9.4923
 
  0.2222222E+00  0.2222222E+00  0.2222222E+00  0.2500000E-01
   1       -5.4118
   2       -3.2102
   3       -3.2102
   4       -3.2102
   5       -0.4390
   6       -0.4390
   7       -0.4390
   8        2.2716
   9        2.2716
  10        2.2716
  11        2.5280
  12        3.6071
  13        3.6071
  14        3.6071
  15        5.3006
  16        5.3006
  17        7.2945
  18        7.2945
  19        7.2945
  20        8.1165
  21        9.4015
 
  0.1666667E+00  0.1666667E+00  0.1666667E+00  0.2500000E-01
   1       -5.6886
   2       -2.9616
   3       -2.9616
   4       -2.9616
   5       -0.6179
   6       -0.6179
   7       -0.6179
   8        2.2907
   9        2.2907
  10        2.2907
  11        3.3840
  12        3.3840
  13        3.3840
  14        3.5767
  15        5.5152
  16        5.5152
  17        7.0024
  18        7.0024
  19        7.0024
  20        8.3297
  21        8.6711
 
  0.1111111E+00  0.1111111E+00  0.1111111E+00  0.2500000E-01
   1       -5.8896
   2       -2.6547
   3       -2.6547
   4       -2.6547
   5       -0.9873
   6       -0.9873
   7       -0.9873
   8        2.5753
   9        2.5753
  10        2.5753
  11        3.2183
  12        3.2183
  13        3.2183
  14        4.6205
  15        5.7326
  16        5.7326
  17        6.7871
  18        6.7871
  19        6.7871
  20        7.6892
  21        7.6892
 
  0.5555556E-01  0.5555556E-01  0.5555556E-01  0.2500000E-01
   1       -6.0114
   2       -2.2914
   3       -2.2914
   4       -2.2914
   5       -1.4323
   6       -1.4323
   7       -1.4323
   8        2.9202
   9        2.9202
  10        2.9202
  11        3.1169
  12        3.1169
  13        3.1169
  14        5.5394
  15        5.9062
  16        5.9062
  17        6.6569
  18        6.6569
  19        6.6569
  20        6.9628
  21        6.9628
 
  0.0000000E+00  0.0000000E+00  0.0000000E+00  0.2500000E-01
   1       -6.0521
   2       -1.8788
   3       -1.8788
   4       -1.8788
   5       -1.8788
   6       -1.8788
   7       -1.8788
   8        3.0827
   9        3.0827
  10        3.0827
  11        3.0827
  12        3.0827
  13        3.0827
  14        5.9755
  15        5.9755
  16        5.9755
  17        6.6458
  18        6.6458
  19        6.6458
  20        6.6458
  21        6.6458
 
  0.0000000E+00  0.0000000E+00  0.0000000E+00  0.2500000E-01
   1       -6.0521
   2       -1.8788
   3       -1.8788
   4       -1.8788
   5       -1.8788
   6       -1.8788
   7       -1.8788
   8        3.0827
   9        3.0827
  10        3.0827
  11        3.0827
  12        3.0827
  13        3.0827
  14        5.9755
  15        5.9755
  16        5.9755
  17        6.6458
  18        6.6458
  19        6.6458
  20        6.6458
  21        6.6458
 
  0.0000000E+00  0.5555556E-01  0.5555556E-01  0.2500000E-01
   1       -6.0249
   2       -2.2971
   3       -2.2971
   4       -1.8900
   5       -1.8495
   6       -1.4352
   7       -1.4352
   8        2.9066
   9        3.0499
  10        3.0499
  11        3.0581
  12        3.0581
  13        3.1046
  14        5.7069
  15        5.8570
  16        5.9634
  17        6.6430
  18        6.6430
  19        6.6710
  20        6.8363
  21        6.8364
 
  0.0000000E+00  0.1111111E+00  0.1111111E+00  0.2500000E-01
   1       -5.9436
   2       -2.6797
   3       -2.6797
   4       -1.9299
   5       -1.7613
   6       -0.9832
   7       -0.9832
   8        2.5062
   9        2.9517
  10        2.9517
  11        3.0144
  12        3.0144
  13        3.1699
  14        5.0974
  15        5.5381
  16        5.9254
  17        6.7464
  18        6.8257
  19        6.8257
  20        7.1915
  21        7.1916
 
  0.0000000E+00  0.1666667E+00  0.1666667E+00  0.2500000E-01
   1       -5.8086
   2       -3.0197
   3       -3.0197
   4       -2.0176
   5       -1.6147
   6       -0.5494
   7       -0.5494
   8        2.0738
   9        2.8072
  10        2.8072
  11        3.0049
  12        3.0049
  13        3.2776
  14        4.3778
  15        5.0929
  16        5.8561
  17        6.8711
  18        7.1666
  19        7.1666
  20        7.6781
  21        7.6781
 
  0.0000000E+00  0.2222222E+00  0.2222222E+00  0.2500000E-01
   1       -5.6212
   2       -3.3125
   3       -3.3125
   4       -2.1773
   5       -1.4098
   6       -0.1696
   7       -0.1696
   8        1.7300
   9        2.6450
  10        2.6450
  11        3.0850
  12        3.0850
  13        3.4259
  14        3.6409
  15        4.5821
  16        5.7488
  17        7.0425
  18        7.6309
  19        7.6309
  20        8.2692
  21        8.2692
 
  0.0000000E+00  0.2777778E+00  0.2777778E+00  0.2500000E-01
   1       -5.3828
   2       -3.5553
   3       -3.5553
   4       -2.4267
   5       -1.1472
   6        0.1209
   7        0.1209
   8        1.5339
   9        2.4888
  10        2.4888
  11        2.9234
  12        3.2968
  13        3.2968
  14        3.6117
  15        4.0499
  16        5.5970
  17        7.2577
  18        8.1885
  19        8.1885
  20        8.9442
  21        8.9515
 
  0.0000000E+00  0.3333333E+00  0.3333333E+00  0.2500000E-01
   1       -5.0961
   2       -3.7458
   3       -3.7458
   4       -2.7612
   5       -0.8275
   6        0.3087
   7        0.3087
   8        1.5001
   9        2.2410
  10        2.3553
  11        2.3553
  12        3.5242
  13        3.6438
  14        3.6438
  15        3.8309
  16        5.4016
  17        7.5109
  18        8.8151
  19        8.8151
  20        9.0186
  21        9.5174
 
  0.0000000E+00  0.3888889E+00  0.3888889E+00  0.2500000E-01
   1       -4.7650
   2       -3.8829
   3       -3.8829
   4       -3.1537
   5       -0.4506
   6        0.4101
   7        0.4101
   8        1.6004
   9        1.6131
  10        2.2536
  11        2.2536
  12        3.0245
  13        4.0706
  14        4.0706
  15        4.0786
  16        5.1667
  17        7.7963
  18        8.8987
  19        9.2980
  20        9.2985
  21        9.4893
 
  0.0000000E+00  0.4444444E+00  0.4444444E+00  0.2500000E-01
   1       -4.3944
   2       -3.9655
   3       -3.9655
   4       -3.5732
   5       -0.0182
   6        0.4560
   7        0.4560
   8        1.0092
   9        1.8444
  10        2.1906
  11        2.1906
  12        2.5684
  13        4.3472
  14        4.4587
  15        4.4587
  16        4.9040
  17        8.1014
  18        8.6569
  19        8.6569
  20        8.6850
  21       10.1929
 
  0.0000000E+00  0.5000000E+00  0.5000000E+00  0.2500000E-01
   1       -3.9932
   2       -3.9932
   3       -3.9932
   4       -3.9932
   5        0.4687
   6        0.4687
   7        0.4687
   8        0.4687
   9        2.1692
  10        2.1692
  11        2.1692
  12        2.1692
  13        4.6258
  14        4.6258
  15        4.6258
  16        4.6258
  17        8.4069
  18        8.4069
  19        8.4069
  20        8.4069
  21       10.7548
 
  0.0000000E+00  0.5000000E+00  0.5000000E+00  0.2500000E-01
   1       -3.9932
   2       -3.9932
   3       -3.9932
   4       -3.9932
   5        0.4687
   6        0.4687
   7        0.4687
   8        0.4687
   9        2.1692
  10        2.1692
  11        2.1692
  12        2.1692
  13        4.6258
  14        4.6258
  15        4.6258
  16        4.6258
  17        8.4069
  18        8.4069
  19        8.4069
  20        8.4069
  21       10.7550
 
  0.2777778E-01  0.5138889E+00  0.5138889E+00  0.2500000E-01
   1       -4.0938
   2       -3.9896
   3       -3.9896
   4       -3.8877
   5        0.3210
   6        0.4461
   7        0.4461
   8        0.5760
   9        2.1067
  10        2.1975
  11        2.1975
  12        2.2902
  13        4.5569
  14        4.6157
  15        4.6157
  16        4.6965
  17        8.3332
  18        8.4242
  19        8.4242
  20        8.4806
  21       10.6424
 
  0.5555556E-01  0.5277778E+00  0.5277778E+00  0.2500000E-01
   1       -4.1882
   2       -3.9789
   3       -3.9789
   4       -3.7791
   5        0.1424
   6        0.3829
   7        0.3829
   8        0.6422
   9        2.0955
  10        2.2772
  11        2.2772
  12        2.4689
  13        4.4908
  14        4.5856
  15        4.5856
  16        4.7677
  17        8.2627
  18        8.4752
  19        8.4752
  20        8.5498
  21       10.4138
 
  0.8333333E-01  0.5416667E+00  0.5416667E+00  0.2500000E-01
   1       -4.2755
   2       -3.9611
   3       -3.9611
   4       -3.6699
   5       -0.0534
   6        0.2898
   7        0.2898
   8        0.6746
   9        2.1245
  10        2.3967
  11        2.3967
  12        2.6952
  13        4.4292
  14        4.5383
  15        4.5383
  16        4.8369
  17        8.1975
  18        8.5574
  19        8.5574
  20        8.6067
  21       10.1057
 
  0.1111111E+00  0.5555556E+00  0.5555556E+00  0.2500000E-01
   1       -4.3550
   2       -3.9366
   3       -3.9366
   4       -3.5637
   5       -0.2529
   6        0.1783
   7        0.1783
   8        0.6836
   9        2.1835
  10        2.5425
  11        2.5425
  12        2.9573
  13        4.3727
  14        4.4770
  15        4.4770
  16        4.9015
  17        8.1389
  18        8.6398
  19        8.6665
  20        8.6665
  21        9.7778
 
  0.1388889E+00  0.5694444E+00  0.5694444E+00  0.2500000E-01
   1       -4.4263
   2       -3.9055
   3       -3.9055
   4       -3.4647
   5       -0.4428
   6        0.0573
   7        0.0573
   8        0.6781
   9        2.2653
  10        2.7014
  11        2.7014
  12        3.2422
  13        4.3226
  14        4.4068
  15        4.4068
  16        4.9598
  17        8.0887
  18        8.6321
  19        8.7935
  20        8.7935
  21        9.4601
 
  0.1666667E+00  0.5833333E+00  0.5833333E+00  0.2500000E-01
   1       -4.4887
   2       -3.8680
   3       -3.8680
   4       -3.3799
   5       -0.6120
   6       -0.0661
   7       -0.0661
   8        0.6652
   9        2.3642
  10        2.8624
  11        2.8624
  12        3.5403
  13        4.2787
  14        4.3335
  15        4.3335
  16        5.0084
  17        8.0475
  18        8.5652
  19        8.8960
  20        8.8961
  21        9.2044
 
  0.1944444E+00  0.5972222E+00  0.5972222E+00  0.2500000E-01
   1       -4.5423
   2       -3.8247
   3       -3.8247
   4       -3.3170
   5       -0.7489
   6       -0.1877
   7       -0.1877
   8        0.6494
   9        2.4765
  10        3.0119
  11        3.0119
  12        3.8421
  13        4.2416
  14        4.2637
  15        4.2637
  16        5.0439
  17        8.0152
  18        8.4340
  19        8.7704
  20        8.7704
  21        9.2163
 
  0.2222222E+00  0.6111111E+00  0.6111111E+00  0.2500000E-01
   1       -4.5862
   2       -3.7760
   3       -3.7760
   4       -3.2852
   5       -0.8423
   6       -0.3039
   7       -0.3039
   8        0.6338
   9        2.5994
  10        3.1360
  11        3.1360
  12        4.1382
  13        4.2069
  14        4.2069
  15        4.2118
  16        5.0643
  17        7.9923
  18        8.2604
  19        8.5340
  20        8.5340
  21        9.3892
 
  0.2500000E+00  0.6250000E+00  0.6250000E+00  0.2500000E-01
   1       -4.6207
   2       -3.7225
   3       -3.7225
   4       -3.2915
   5       -0.8828
   6       -0.4126
   7       -0.4126
   8        0.6202
   9        2.7311
  10        3.2183
  11        3.2183
  12        4.1717
  13        4.1717
  14        4.1893
  15        4.4162
  16        5.0668
  17        7.9788
  18        8.0750
  19        8.3201
  20        8.3201
  21        9.4306
 
  0.3750000E+00  0.7500000E+00  0.3750000E+00  0.2500000E-01
   1       -4.6207
   2       -3.7225
   3       -3.7225
   4       -3.2915
   5       -0.8828
   6       -0.4126
   7       -0.4126
   8        0.6202
   9        2.7311
  10        3.2183
  11        3.2183
  12        4.1717
  13        4.1717
  14        4.1893
  15        4.4162
  16        5.0668
  17        7.9788
  18        8.0750
  19        8.3201
  20        8.3201
  21        9.4290
 
  0.3333333E+00  0.6666667E+00  0.3333333E+00  0.2500000E-01
   1       -4.6653
   2       -3.5403
   3       -3.5403
   4       -3.5403
   5       -0.6766
   6       -0.6766
   7       -0.6766
   8        0.6012
   9        3.1657
  10        3.1657
  11        3.1657
  12        4.1717
  13        4.1717
  14        4.1717
  15        4.9575
  16        4.9575
  17        7.7480
  18        7.9960
  19        7.9960
  20        7.9960
  21        9.4612
 
  0.2916667E+00  0.5833333E+00  0.2916667E+00  0.2500000E-01
   1       -4.6201
   2       -3.9931
   3       -3.3443
   4       -3.3443
   5       -0.8261
   6       -0.8261
   7       -0.1109
   8        0.6188
   9        2.8586
  10        2.8586
  11        3.6358
  12        4.0537
  13        4.0537
  14        4.2290
  15        4.6995
  16        4.7604
  17        8.0759
  18        8.0840
  19        8.2793
  20        8.2793
  21        9.2468
 
  0.2500000E+00  0.5000000E+00  0.2500000E+00  0.2500000E-01
   1       -4.4841
   2       -4.4841
   3       -3.1571
   4       -3.1571
   5       -0.8558
   6       -0.8558
   7        0.6550
   8        0.6550
   9        2.4841
  10        2.4841
  11        3.7815
  12        3.7815
  13        4.1191
  14        4.1191
  15        4.3629
  16        4.3629
  17        8.2108
  18        8.2108
  19        9.0434
  20        9.0525
  21        9.0857
 
  0.2083333E+00  0.4166667E+00  0.2083333E+00  0.2500000E-01
   1       -4.9402
   2       -4.2581
   3       -2.9892
   4       -2.9892
   5       -0.8088
   6       -0.8088
   7        0.6528
   8        1.5450
   9        2.1433
  10        2.1433
  11        3.4375
  12        3.5122
  13        3.5122
  14        4.0151
  15        4.5710
  16        4.5931
  17        7.8132
  18        8.3276
  19        8.4191
  20        8.4191
  21        9.4059
 
  0.1666667E+00  0.3333333E+00  0.1666667E+00  0.2500000E-01
   1       -5.3309
   2       -3.9432
   3       -2.8287
   4       -2.8287
   5       -0.7940
   6       -0.7940
   7        0.4947
   8        1.9721
   9        1.9721
  10        2.5226
  11        2.9455
  12        3.3140
  13        3.3140
  14        3.6976
  15        4.8471
  16        5.0358
  17        7.3758
  18        7.8289
  19        7.8289
  20        8.4084
  21        9.1859
 
  0.1250000E+00  0.2500000E+00  0.1250000E+00  0.2500000E-01
   1       -5.6429
   2       -3.5423
   3       -2.6528
   4       -2.6528
   5       -0.9252
   6       -0.9252
   7        0.0786
   8        2.0855
   9        2.0855
  10        2.7774
  11        3.1897
  12        3.1897
  13        3.4358
  14        3.5565
  15        5.1786
  16        5.4222
  17        7.0095
  18        7.3300
  19        7.3300
  20        8.2669
  21        8.4627
 
  0.8333333E-01  0.1666667E+00  0.8333333E-01  0.2500000E-01
   1       -5.8693
   2       -3.0595
   3       -2.4412
   4       -2.4412
   5       -1.2008
   6       -1.2008
   7       -0.5321
   8        2.4478
   9        2.4478
  10        2.8572
  11        3.1218
  12        3.1218
  13        3.2417
  14        4.5975
  15        5.5327
  16        5.7219
  17        6.7469
  18        6.9497
  19        6.9497
  20        7.4891
  21        7.8665
 
  0.4166667E-01  0.8333333E-01  0.4166667E-01  0.2500000E-01
   1       -6.0063
   2       -2.5014
   3       -2.1833
   4       -2.1833
   5       -1.5402
   6       -1.5402
   7       -1.2101
   8        2.8752
   9        2.8752
  10        3.0094
  11        3.0910
  12        3.0910
  13        3.1227
  14        5.5274
  15        5.8425
  16        5.9113
  17        6.6101
  18        6.7101
  19        6.7101
  20        6.9315
  21        7.0091
 
  0.0000000E+00  0.0000000E+00  0.0000000E+00  0.2500000E-01
   1       -6.0521
   2       -1.8788
   3       -1.8788
   4       -1.8788
   5       -1.8788
   6       -1.8788
   7       -1.8788
   8        3.0827
   9        3.0827
  10        3.0827
  11        3.0827
  12        3.0827
  13        3.0827
  14        5.9755
  15        5.9755
  16        5.9755
  17        6.6458
  18        6.6458
  19        6.6458
  20        6.6458
  21        6.6458
