       N       E                     dE             d eps       ncg     rms          rms(c)
DAV:   1     0.408749097105E+02    0.40875E+02   -0.77464E+03  1680   0.668E+02
DAV:   2    -0.380437348376E+02   -0.78919E+02   -0.74346E+02  2305   0.126E+02
DAV:   3    -0.416434080846E+02   -0.35997E+01   -0.35090E+01  2216   0.259E+01
DAV:   4    -0.417211441585E+02   -0.77736E-01   -0.77119E-01  2104   0.402E+00
DAV:   5    -0.417230282898E+02   -0.18841E-02   -0.18806E-02  2147   0.523E-01    0.654E+00
DAV:   6    -0.410936679773E+02    0.62936E+00   -0.34594E-01  1920   0.257E+00    0.388E+00
DAV:   7    -0.408100274722E+02    0.28364E+00   -0.68663E-01  1864   0.376E+00    0.346E-01
DAV:   8    -0.408193747339E+02   -0.93473E-02   -0.35185E-02  1985   0.938E-01    0.660E-02
DAV:   9    -0.408199153155E+02   -0.54058E-03   -0.13648E-03  2091   0.194E-01    0.454E-02
DAV:  10    -0.408200847762E+02   -0.16946E-03   -0.33362E-04  1777   0.990E-02    0.827E-03
DAV:  11    -0.408200866380E+02   -0.18618E-05   -0.10330E-05  1190   0.159E-02
   1 F= -.40820087E+02 E0= -.40820086E+02  d E =-.617562E-06
