 vasp.4.6.36 17Feb09 complex 
 executed on             LinuxIFC date 2009.10.23  04:17:18
 serial version


--------------------------------------------------------------------------------------------------------


 INCAR:
 POTCAR:   PAW_PBE Si 05Jan2001                   
 POTCAR:   PAW_PBE Si 05Jan2001                   
   VRHFIN =Si: s2p2                                                             
   LEXCH  = PE                                                                  
   EATOM  =   103.0669 eV,    7.5752 Ry                                         
                                                                                
   TITEL  = PAW_PBE Si 05Jan2001                                                
   LULTRA =        F    use ultrasoft PP ?                                      
   IUNSCR =        1    unscreen: 0-lin 1-nonlin 2-no                           
   RPACOR =    1.500    partial core radius                                     
   POMASS =   28.085; ZVAL   =    4.000    mass and valenz                      
   RCORE  =    1.900    outmost cutoff radius                                   
   RWIGS  =    2.480; RWIGS  =    1.312    wigner-seitz radius (au A)           
   ENMAX  =  245.345; ENMIN  =  184.009 eV                                      
   ICORE  =        2    local potential                                         
   LCOR   =        T    correct aug charges                                     
   LPAW   =        T    paw PP                                                  
   EAUG   =  322.069                                                            
   DEXC   =    -.007                                                            
   RMAX   =    2.944    core radius for proj-oper                               
   RAUG   =    1.300    factor for augmentation sphere                          
   RDEP   =    1.993    radius for radial grids                                 
   QCUT   =   -4.246; QGAM   =    8.493    optimization parameters              
                                                                                
   Description                                                                  
     l     E      TYP  RCUT    TYP  RCUT                                        
     0   .000     23  1.900                                                     
     0   .000     23  1.900                                                     
     1   .000     23  1.900                                                     
     1   .000     23  1.900                                                     
     2   .000      7  1.900                                                     
  local pseudopotential read in
  partial core-charges read in
  atomic valenz-charges read in
  non local Contribution for L=           0  read in
    real space projection operators read in
  non local Contribution for L=           0  read in
    real space projection operators read in
  non local Contribution for L=           1  read in
    real space projection operators read in
  non local Contribution for L=           1  read in
    real space projection operators read in
    PAW grid and wavefunctions read in
 
   number of l-projection  operators is LMAX  =           4
   number of lm-projection operators is LMMAX =           8
 
 PAW_PBE Si 05Jan2001                   :
 energy of atom  1       EATOM= -103.0669
 kinetic energy error for atom=    0.0061 (will be added to EATOM!!)
 
 EXHCAR: internal setup
 exchange correlation table for  LEXCH =        8
   RHO(1)=    0.500       N(1)  =     2000
   RHO(2)=  100.500       N(2)  =     4000
 
 POSCAR:  my lattice                             
  positions in direct lattice
  No initial velocities read in
 


--------------------------------------------------------------------------------------------------------


 ion  position               nearest neighbor table
   1  0.000  0.000  0.000-   5 2.35   6 2.35   7 2.35   8 2.35
   2  0.000  0.500  0.500-   5 2.35   6 2.35   7 2.35   8 2.35
   3  0.500  0.000  0.500-   5 2.35   6 2.35   7 2.35   8 2.35
   4  0.500  0.500  0.000-   5 2.35   6 2.35   7 2.35   8 2.35
   5  0.250  0.250  0.250-   1 2.35   2 2.35   3 2.35   4 2.35
   6  0.250  0.750  0.750-   1 2.35   2 2.35   3 2.35   4 2.35
   7  0.750  0.250  0.750-   1 2.35   2 2.35   3 2.35   4 2.35
   8  0.750  0.750  0.250-   1 2.35   2 2.35   3 2.35   4 2.35
 
  LATTYP: Found a simple cubic cell.
 ALAT       =     5.4200000000
  
  Lattice vectors:
  
 A1 = (   5.4200000000,   0.0000000000,   0.0000000000)
 A2 = (   0.0000000000,   5.4200000000,   0.0000000000)
 A3 = (   0.0000000000,   0.0000000000,   5.4200000000)
 Subroutine PRICEL returns following result:
 
  LATTYP: Found a face centered cubic cell.
 ALAT       =     5.4200000000
  
  Lattice vectors:
  
 A1 = (   2.7100000000,   2.7100000000,   0.0000000000)
 A2 = (   2.7100000000,   0.0000000000,  -2.7100000000)
 A3 = (   0.0000000000,   2.7100000000,  -2.7100000000)
 
   4 primitive cells build up your supercell.
 

Analysis of symmetry for initial positions (statically):

 Routine SETGRP: Setting up the symmetry group for a 
 simple cubic supercell.


 Subroutine GETGRP returns: Found 48 space group operations
 (whereof 24 operations were pure point group operations)
 out of a pool of 48 trial point group operations.


The static configuration has the point symmetry T_d .
 The point group associated with its full space group is O_h .

Analysis of symmetry for dynamics (positions and initial velocities):

 Subroutine DYNSYM returns: Found 48 space group operations
 (whereof 24 operations were pure point group operations)
 out of a pool of 48 trial space group operations
 (whereof 24 operations were pure point group operations)
 and found also     4 'primitive' translations


The dynamic configuration has the point symmetry T_d .
 The point group associated with its full space group is O_h .
 
 
 KPOINTS: kpoints for bandstructure L-G-X-U K-G   
  interpolating k-points between supplied coordinates
  k-points in reciprocal lattice


--------------------------------------------------------------------------------------------------------




 Dimension of arrays:
   k-Points           NKPTS =     40   number of bands    NBANDS=     21
   number of dos      NEDOS =    301   number of ions     NIONS =      8
   non local maximal  LDIM  =      4   non local SUM 2l+1 LMDIM =      8
   total plane-waves  NPLWV =  13824
   max r-space proj   IRMAX =      1   max aug-charges    IRDMAX=   1060
   dimension x,y,z NGX =    24 NGY =   24 NGZ =   24
   dimension x,y,z NGXF=    32 NGYF=   32 NGZF=   32
   support grid    NGXF=    32 NGYF=   32 NGZF=   32
   ions per type =               8
 NGX,Y,Z   is equivalent  to a cutoff of   7.36,  7.36,  7.36 a.u.
 NGXF,Y,Z  is equivalent  to a cutoff of   9.82,  9.82,  9.82 a.u.


 I would recommend the setting:
   dimension x,y,z NGX =    21 NGY =   21 NGZ =   21
 SYSTEM =  diamond Si                              
 POSCAR =   my lattice                             

 Startparameter for this run:
   NWRITE =      2    write-flag & timer
   PREC   = medium    medium, high low
   ISTART =      0    job   : 0-new  1-cont  2-samecut
   ICHARG =      2    charge: 1-file 2-atom 10-const
   ISPIN  =      1    spin polarized calculation?
   LNONCOLLINEAR =      F non collinear calculations
   LSORBIT =      F    spin-orbit coupling
   INIWAV =      1    electr: 0-lowe 1-rand  2-diag
   LASPH  =      F    aspherical Exc in radial PAW
   METAGGA=      F    non-selfconsistent MetaGGA calc.

 Electronic Relaxation 1
   ENCUT  =  240.0 eV  17.64 Ry    4.20 a.u.   6.85  6.85  6.85*2*pi/ulx,y,z
   ENINI  =  240.0     initial cutoff
   ENAUG  =  322.1 eV  augmentation charge cutoff
   NELM   =     60;   NELMIN=  2; NELMDL= -5     # of ELM steps 
   EDIFF  = 0.1E-03   stopping-criterion for ELM
   LREAL  =      F    real-space projection
   LCOMPAT=      F    compatible to vasp.4.4
   LREAL_COMPAT= F    compatible to vasp.4.5.1-3
   GGA_COMPAT  = T    GGA compatible to vasp.4.4-vasp.4.6
   LMAXPAW     = -100 max onsite density
   LMAXMIX     =    2 max onsite mixed and CHGCAR
   VOSKOWN=      0    Vosko Wilk Nusair interpolation
   ROPT   =    0.00000
 Ionic relaxation
   EDIFFG = 0.1E-02   stopping-criterion for IOM
   NSW    =      0    number of steps for IOM
   NBLOCK =      1;   KBLOCK =      1    inner block; outer block 
   IBRION =     -1    ionic relax: 0-MD 1-quasi-New 2-CG
   NFREE  =      0    steps in history (QN), initial steepest desc. (CG)
   ISIF   =      2    stress and relaxation
   IWAVPR =      0    prediction:  0-non 1-charg 2-wave 3-comb
   ISYM   =      2    0-nonsym 1-usesym 2-fastsym
   LCORR  =      T    Harris-Foulkes like correction to forces

   POTIM  =   0.50    time-step for ionic-motion
   TEIN   =    0.0    initial temperature
   TEBEG  =    0.0;   TEEND  =   0.0 temperature during run
   SMASS  =  -3.00    Nose mass-parameter (am)
   estimated Nose-frequenzy (Omega)   =  0.10E-29 period in steps =****** mass=  -0.671E-27a.u.
   NPACO  =    256;   APACO  = 16.0  distance and # of slots for P.C.
   PSTRESS=    0.0 pullay stress

  Mass of Ions in am
   POMASS =  28.09
  Ionic Valenz
   ZVAL   =   4.00
  Atomic Wigner-Seitz radii
   RWIGS  =  -1.00
   NELECT =      32.0000    total number of electrons
   NUPDOWN=      -1.0000    fix difference up-down

 DOS related values:
   EMIN   =  10.00;   EMAX   =-10.00  energy-range for DOS
   ISMEAR =     0;   SIGMA  =   0.10  broadening in eV -4-tet -1-fermi 0-gaus

 Electronic relaxation 2 (details)
   IALGO  =     38    algorithm
   LDIAG  =      T    sub-space diagonalisation
   IMIX   =      4    mixing-type and parameters
     AMIX     =   0.40;   BMIX     =  1.00
     AMIX_MAG =   1.60;   BMIX_MAG =  1.00
     AMIN     =   0.10
     WC   =   100.;   INIMIX=   1;  MIXPRE=   1

 Intra band minimization:
   WEIMIN = 0.0000     energy-eigenvalue tresh-hold
   EBREAK =  0.12E-05  absolut break condition
   DEPER  =   0.30     relativ break condition  

   TIME   =   0.10     timestep for ELM

  volume/ion in A,a.u.               =      19.90       134.31
  Fermi-wavevector in a.u.,eV,Ry     =   0.958942 12.511498  0.919569

 Second variation
   LSECVAR=     F    do a second variation
 
 Write flags
   LWAVE  =      T    write WAVECAR
   LCHARG =      T    write CHGCAR
   LVTOT  =      F    write LOCPOT, local potential
   LELF   =      F    write electronic localiz. function (ELF)
   LORBIT =     11    0 simple, 1 ext, 2 COOP (PROOUT)


 Dipole corrections
   IDIPOL =      0    1-x, 2-y, 3-z
   LDIPOL =      F    correct potential



--------------------------------------------------------------------------------------------------------


 Static calculation
 charge density will be updated during run
 non-spin polarized calculation
 Variant of blocked Davidson
 Davidson routine will perform the subspace rotation
 performe sub-space diagonalisation
    after iterative eigenvector-optimisation
 modified Broyden-mixing scheme, WC =      100.0
 initial mixing is a Kerker type mixing with AMIX =  0.4000 and BMIX =      1.0000
 Hartree-type preconditioning will be used
 using additional bands            5
 reciprocal scheme for non local part
 use partial core corrections
 calculate Harris-corrections to forces 
   (improved forces if not selfconsistent)
 use gradient corrections 
 use of overlap-Matrix (Vanderbilt PP)
 Gauss-broadening in eV      SIGMA  =   0.10


--------------------------------------------------------------------------------------------------------


  energy-cutoff  :      240.00
  volume of cell :      159.22
      direct lattice vectors                 reciprocal lattice vectors
     5.420000000  0.000000000  0.000000000     0.184501845  0.000000000  0.000000000
     0.000000000  5.420000000  0.000000000     0.000000000  0.184501845  0.000000000
     0.000000000  0.000000000  5.420000000     0.000000000  0.000000000  0.184501845

  length of vectors
     5.420000000  5.420000000  5.420000000     0.184501845  0.184501845  0.184501845


 
 k-points in units of 2pi/SCALE and weight: kpoints for bandstructure L-G-X-U K-G   
   0.92250923  0.92250923  0.92250923       0.025
   0.82000820  0.82000820  0.82000820       0.025
   0.71750718  0.71750718  0.71750718       0.025
   0.61500615  0.61500615  0.61500615       0.025
   0.51250513  0.51250513  0.51250513       0.025
   0.41000410  0.41000410  0.41000410       0.025
   0.30750308  0.30750308  0.30750308       0.025
   0.20500205  0.20500205  0.20500205       0.025
   0.10250103  0.10250103  0.10250103       0.025
   0.00000000  0.00000000  0.00000000       0.025
   0.00000000  0.00000000  0.00000000       0.025
   0.00000000  0.10250103  0.10250103       0.025
   0.00000000  0.20500205  0.20500205       0.025
   0.00000000  0.30750308  0.30750308       0.025
   0.00000000  0.41000410  0.41000410       0.025
   0.00000000  0.51250513  0.51250513       0.025
   0.00000000  0.61500615  0.61500615       0.025
   0.00000000  0.71750718  0.71750718       0.025
   0.00000000  0.82000820  0.82000820       0.025
   0.00000000  0.92250923  0.92250923       0.025
   0.00000000  0.92250923  0.92250923       0.025
   0.05125051  0.94813448  0.94813448       0.025
   0.10250103  0.97375974  0.97375974       0.025
   0.15375154  0.99938499  0.99938499       0.025
   0.20500205  1.02501025  1.02501025       0.025
   0.25625256  1.05063551  1.05063551       0.025
   0.30750308  1.07626076  1.07626076       0.025
   0.35875359  1.10188602  1.10188602       0.025
   0.41000410  1.12751128  1.12751128       0.025
   0.46125461  1.15313653  1.15313653       0.025
   0.69188192  1.38376384  0.69188192       0.025
   0.61500615  1.23001230  0.61500615       0.025
   0.53813038  1.07626076  0.53813038       0.025
   0.46125461  0.92250923  0.46125461       0.025
   0.38437884  0.76875769  0.38437884       0.025
   0.30750308  0.61500615  0.30750308       0.025
   0.23062731  0.46125461  0.23062731       0.025
   0.15375154  0.30750308  0.15375154       0.025
   0.07687577  0.15375154  0.07687577       0.025
   0.00000000  0.00000000  0.00000000       0.025
 
 k-points in reciprocal lattice and weights: kpoints for bandstructure L-G-X-U K-G   
   0.50000000  0.50000000  0.50000000       0.025
   0.44444444  0.44444444  0.44444444       0.025
   0.38888889  0.38888889  0.38888889       0.025
   0.33333333  0.33333333  0.33333333       0.025
   0.27777778  0.27777778  0.27777778       0.025
   0.22222222  0.22222222  0.22222222       0.025
   0.16666667  0.16666667  0.16666667       0.025
   0.11111111  0.11111111  0.11111111       0.025
   0.05555556  0.05555556  0.05555556       0.025
   0.00000000  0.00000000  0.00000000       0.025
   0.00000000  0.00000000  0.00000000       0.025
   0.00000000  0.05555556  0.05555556       0.025
   0.00000000  0.11111111  0.11111111       0.025
   0.00000000  0.16666667  0.16666667       0.025
   0.00000000  0.22222222  0.22222222       0.025
   0.00000000  0.27777778  0.27777778       0.025
   0.00000000  0.33333333  0.33333333       0.025
   0.00000000  0.38888889  0.38888889       0.025
   0.00000000  0.44444444  0.44444444       0.025
   0.00000000  0.50000000  0.50000000       0.025
   0.00000000  0.50000000  0.50000000       0.025
   0.02777778  0.51388889  0.51388889       0.025
   0.05555556  0.52777778  0.52777778       0.025
   0.08333333  0.54166667  0.54166667       0.025
   0.11111111  0.55555556  0.55555556       0.025
   0.13888889  0.56944444  0.56944444       0.025
   0.16666667  0.58333333  0.58333333       0.025
   0.19444444  0.59722222  0.59722222       0.025
   0.22222222  0.61111111  0.61111111       0.025
   0.25000000  0.62500000  0.62500000       0.025
   0.37500000  0.75000000  0.37500000       0.025
   0.33333333  0.66666667  0.33333333       0.025
   0.29166667  0.58333333  0.29166667       0.025
   0.25000000  0.50000000  0.25000000       0.025
   0.20833333  0.41666667  0.20833333       0.025
   0.16666667  0.33333333  0.16666667       0.025
   0.12500000  0.25000000  0.12500000       0.025
   0.08333333  0.16666667  0.08333333       0.025
   0.04166667  0.08333333  0.04166667       0.025
   0.00000000  0.00000000  0.00000000       0.025
 
 position of ions in fractional coordinates (direct lattice) 
   0.00000000  0.00000000  0.00000000
   0.00000000  0.50000000  0.50000000
   0.50000000  0.00000000  0.50000000
   0.50000000  0.50000000  0.00000000
   0.25000000  0.25000000  0.25000000
   0.25000000  0.75000000  0.75000000
   0.75000000  0.25000000  0.75000000
   0.75000000  0.75000000  0.25000000
 
 position of ions in cartesian coordinates  (Angst):
   0.00000000  0.00000000  0.00000000
   0.00000000  2.71000000  2.71000000
   2.71000000  0.00000000  2.71000000
   2.71000000  2.71000000  0.00000000
   1.35500000  1.35500000  1.35500000
   1.35500000  4.06500000  4.06500000
   4.06500000  1.35500000  4.06500000
   4.06500000  4.06500000  1.35500000
 


--------------------------------------------------------------------------------------------------------


 k-point  1 :  0.50000.50000.5000  plane waves:   1376
 k-point  2 :  0.44440.44440.4444  plane waves:   1352
 k-point  3 :  0.38890.38890.3889  plane waves:   1355
 k-point  4 :  0.33330.33330.3333  plane waves:   1349
 k-point  5 :  0.27780.27780.2778  plane waves:   1337
 k-point  6 :  0.22220.22220.2222  plane waves:   1346
 k-point  7 :  0.16670.16670.1667  plane waves:   1346
 k-point  8 :  0.11110.11110.1111  plane waves:   1334
 k-point  9 :  0.05560.05560.0556  plane waves:   1346
 k-point 10 :  0.00000.00000.0000  plane waves:   1357
 k-point 11 :  0.00000.00000.0000  plane waves:   1357
 k-point 12 :  0.00000.05560.0556  plane waves:   1353
 k-point 13 :  0.00000.11110.1111  plane waves:   1337
 k-point 14 :  0.00000.16670.1667  plane waves:   1332
 k-point 15 :  0.00000.22220.2222  plane waves:   1336
 k-point 16 :  0.00000.27780.2778  plane waves:   1348
 k-point 17 :  0.00000.33330.3333  plane waves:   1336
 k-point 18 :  0.00000.38890.3889  plane waves:   1342
 k-point 19 :  0.00000.44440.4444  plane waves:   1340
 k-point 20 :  0.00000.50000.5000  plane waves:   1356
 k-point 21 :  0.00000.50000.5000  plane waves:   1356
 k-point 22 :  0.02780.51390.5139  plane waves:   1354
 k-point 23 :  0.05560.52780.5278  plane waves:   1350
 k-point 24 :  0.08330.54170.5417  plane waves:   1346
 k-point 25 :  0.11110.55560.5556  plane waves:   1351
 k-point 26 :  0.13890.56940.5694  plane waves:   1351
 k-point 27 :  0.16670.58330.5833  plane waves:   1342
 k-point 28 :  0.19440.59720.5972  plane waves:   1351
 k-point 29 :  0.22220.61110.6111  plane waves:   1348
 k-point 30 :  0.25000.62500.6250  plane waves:   1353
 k-point 31 :  0.37500.75000.3750  plane waves:   1353
 k-point 32 :  0.33330.66670.3333  plane waves:   1349
 k-point 33 :  0.29170.58330.2917  plane waves:   1350
 k-point 34 :  0.25000.50000.2500  plane waves:   1332
 k-point 35 :  0.20830.41670.2083  plane waves:   1344
 k-point 36 :  0.16670.33330.1667  plane waves:   1357
 k-point 37 :  0.12500.25000.1250  plane waves:   1341
 k-point 38 :  0.08330.16670.0833  plane waves:   1333
 k-point 39 :  0.04170.08330.0417  plane waves:   1348
 k-point 40 :  0.00000.00000.0000  plane waves:   1357

 maximum number of plane-waves:   1376
 maximal index in each direction: 
   IXMAX=  6   IYMAX=  6   IZMAX=  6
   IXMIN= -7   IYMIN= -7   IZMIN= -7

 WARNING: wrap around error must be expected set NGX to  28
 WARNING: wrap around error must be expected set NGY to  28
 WARNING: wrap around error must be expected set NGZ to  28
 For storing wavefunctions   18.11 MBYTES are necessary
 For predicting wavefunctions    1.34 MBYTES are necessary
Broyden mixing: mesh for mixing (old mesh)
   NGX = 13   NGY = 13   NGZ = 13
  (NGX  = 32   NGY  = 32   NGZ  = 32)
 gives a total of   2197 points
 initial charge density was supplied:
 charge density of overlapping atoms calculated
 number of electron   32.0000000 magnetization 
 keeping initial charge density in first step


--------------------------------------------------------------------------------------------------------


 Maximum index for augmentation-charges          847 (set IRDMAX)


--------------------------------------------------------------------------------------------------------


 First call to EWALD:  gamma=   0.327
 Maximum number of real-space cells 3x 3x 3
 Maximum number of reciprocal cells 3x 3x 3

    FEWALD:  VPU time    0.01: CPU time    0.01


----------------------------------------- Iteration    1(   1)  ---------------------------------------


    POTLOK:  VPU time    0.10: CPU time    0.10
    SETDIJ:  VPU time    0.04: CPU time    0.04
    EDDAV :  VPU time   21.10: CPU time   21.11
    DOS   :  VPU time    0.00: CPU time    0.00
    ------------------------------------------
      LOOP:  VPU time   21.27: CPU time   21.28

 eigenvalue-minimisations  :  1680
 total energy-change (2. order) : 0.4087491E+02  (-0.7746393E+03)
 number of electron   32.0000000 magnetization 
 augmentation part    32.0000000 magnetization 

 Free energy of the ion-electron system (eV)
  ---------------------------------------------------
  alpha Z        PSCENC =        13.53118846
  Ewald energy   TEWEN  =      -915.94094829
  -1/2 Hartree   DENC   =       -43.67299867
  -V(xc)+E(xc)   XCENC  =       -74.31651317
  PAW double counting   =       263.82083246     -123.07410713
  entropy T*S    EENTRO =        -0.00620271
  eigenvalues    EBANDS =        96.04744613
  atomic energy  EATOM  =       824.48621262
  ---------------------------------------------------
  free energy    TOTEN  =        40.87490971 eV

  energy without entropy =       40.88111242  energy(sigma->0) =       40.87801107


--------------------------------------------------------------------------------------------------------




----------------------------------------- Iteration    1(   2)  ---------------------------------------


    EDDAV :  VPU time   26.84: CPU time   26.84
    DOS   :  VPU time    0.00: CPU time    0.00
    ------------------------------------------
      LOOP:  VPU time   26.87: CPU time   26.88

 eigenvalue-minimisations  :  2305
 total energy-change (2. order) :-0.7891864E+02  (-0.7434647E+02)
 number of electron   32.0000000 magnetization 
 augmentation part    32.0000000 magnetization 

 Free energy of the ion-electron system (eV)
  ---------------------------------------------------
  alpha Z        PSCENC =        13.53118846
  Ewald energy   TEWEN  =      -915.94094829
  -1/2 Hartree   DENC   =       -43.67299867
  -V(xc)+E(xc)   XCENC  =       -74.31651317
  PAW double counting   =       263.82083246     -123.07410713
  entropy T*S    EENTRO =        -0.00519658
  eigenvalues    EBANDS =        17.12779546
  atomic energy  EATOM  =       824.48621262
  ---------------------------------------------------
  free energy    TOTEN  =       -38.04373484 eV

  energy without entropy =      -38.03853825  energy(sigma->0) =      -38.04113655


--------------------------------------------------------------------------------------------------------




----------------------------------------- Iteration    1(   3)  ---------------------------------------


    EDDAV :  VPU time   25.87: CPU time   25.88
    DOS   :  VPU time    0.00: CPU time    0.00
    ------------------------------------------
      LOOP:  VPU time   25.89: CPU time   25.90

 eigenvalue-minimisations  :  2216
 total energy-change (2. order) :-0.3599673E+01  (-0.3509001E+01)
 number of electron   32.0000000 magnetization 
 augmentation part    32.0000000 magnetization 

 Free energy of the ion-electron system (eV)
  ---------------------------------------------------
  alpha Z        PSCENC =        13.53118846
  Ewald energy   TEWEN  =      -915.94094829
  -1/2 Hartree   DENC   =       -43.67299867
  -V(xc)+E(xc)   XCENC  =       -74.31651317
  PAW double counting   =       263.82083246     -123.07410713
  entropy T*S    EENTRO =         0.00000000
  eigenvalues    EBANDS =        13.52292563
  atomic energy  EATOM  =       824.48621262
  ---------------------------------------------------
  free energy    TOTEN  =       -41.64340808 eV

  energy without entropy =      -41.64340808  energy(sigma->0) =      -41.64340808


--------------------------------------------------------------------------------------------------------




----------------------------------------- Iteration    1(   4)  ---------------------------------------


    EDDAV :  VPU time   24.75: CPU time   24.76
    DOS   :  VPU time    0.00: CPU time    0.00
    ------------------------------------------
      LOOP:  VPU time   24.77: CPU time   24.78

 eigenvalue-minimisations  :  2104
 total energy-change (2. order) :-0.7773607E-01  (-0.7711855E-01)
 number of electron   32.0000000 magnetization 
 augmentation part    32.0000000 magnetization 

 Free energy of the ion-electron system (eV)
  ---------------------------------------------------
  alpha Z        PSCENC =        13.53118846
  Ewald energy   TEWEN  =      -915.94094829
  -1/2 Hartree   DENC   =       -43.67299867
  -V(xc)+E(xc)   XCENC  =       -74.31651317
  PAW double counting   =       263.82083246     -123.07410713
  entropy T*S    EENTRO =         0.00000000
  eigenvalues    EBANDS =        13.44518956
  atomic energy  EATOM  =       824.48621262
  ---------------------------------------------------
  free energy    TOTEN  =       -41.72114416 eV

  energy without entropy =      -41.72114416  energy(sigma->0) =      -41.72114416


--------------------------------------------------------------------------------------------------------




----------------------------------------- Iteration    1(   5)  ---------------------------------------


    EDDAV :  VPU time   25.03: CPU time   25.04
    DOS   :  VPU time    0.00: CPU time    0.00
    CHARGE:  VPU time    1.46: CPU time    1.46
    MIXING:  VPU time    0.00: CPU time    0.00
    ------------------------------------------
      LOOP:  VPU time   26.52: CPU time   26.53

 eigenvalue-minimisations  :  2147
 total energy-change (2. order) :-0.1884131E-02  (-0.1880566E-02)
 number of electron   32.0000271 magnetization 
 augmentation part    -1.8530196 magnetization 

 Broyden mixing:
  rms(total) = 0.65362E+00    rms(broyden)= 0.65355E+00
  rms(prec ) = 0.12303E+01
  weight for this iteration     100.00

 Free energy of the ion-electron system (eV)
  ---------------------------------------------------
  alpha Z        PSCENC =        13.53118846
  Ewald energy   TEWEN  =      -915.94094829
  -1/2 Hartree   DENC   =       -43.67299867
  -V(xc)+E(xc)   XCENC  =       -74.31651317
  PAW double counting   =       263.82083246     -123.07410713
  entropy T*S    EENTRO =         0.00000000
  eigenvalues    EBANDS =        13.44330542
  atomic energy  EATOM  =       824.48621262
  ---------------------------------------------------
  free energy    TOTEN  =       -41.72302829 eV

  energy without entropy =      -41.72302829  energy(sigma->0) =      -41.72302829


--------------------------------------------------------------------------------------------------------




----------------------------------------- Iteration    1(   6)  ---------------------------------------


    POTLOK:  VPU time    0.10: CPU time    0.10
    SETDIJ:  VPU time    0.04: CPU time    0.04
    EDDAV :  VPU time   23.10: CPU time   23.11
    DOS   :  VPU time    0.00: CPU time    0.00
    CHARGE:  VPU time    1.52: CPU time    1.52
    MIXING:  VPU time    0.00: CPU time    0.00
    ------------------------------------------
      LOOP:  VPU time   24.79: CPU time   24.80

 eigenvalue-minimisations  :  1920
 total energy-change (2. order) : 0.6293603E+00  (-0.3459447E-01)
 number of electron   32.0000267 magnetization 
 augmentation part    -1.8266193 magnetization 

 Broyden mixing:
  rms(total) = 0.38821E+00    rms(broyden)= 0.38820E+00
  rms(prec ) = 0.72765E+00
  weight for this iteration     100.00

 eigenvalues of (default mixing * dielectric matrix)
  average eigenvalue GAMMA=   2.4409
  2.4409

 Free energy of the ion-electron system (eV)
  ---------------------------------------------------
  alpha Z        PSCENC =        13.53118846
  Ewald energy   TEWEN  =      -915.94094829
  -1/2 Hartree   DENC   =       -50.43240028
  -V(xc)+E(xc)   XCENC  =       -73.25937478
  PAW double counting   =       282.12342604     -141.87189578
  entropy T*S    EENTRO =         0.00000000
  eigenvalues    EBANDS =        20.27012404
  atomic energy  EATOM  =       824.48621262
  ---------------------------------------------------
  free energy    TOTEN  =       -41.09366798 eV

  energy without entropy =      -41.09366798  energy(sigma->0) =      -41.09366798


--------------------------------------------------------------------------------------------------------




----------------------------------------- Iteration    1(   7)  ---------------------------------------


    POTLOK:  VPU time    0.10: CPU time    0.10
    SETDIJ:  VPU time    0.04: CPU time    0.04
    EDDAV :  VPU time   22.66: CPU time   22.66
    DOS   :  VPU time    0.00: CPU time    0.00
    CHARGE:  VPU time    1.54: CPU time    1.54
    MIXING:  VPU time    0.00: CPU time    0.00
    ------------------------------------------
      LOOP:  VPU time   24.37: CPU time   24.37

 eigenvalue-minimisations  :  1864
 total energy-change (2. order) : 0.2836405E+00  (-0.6866294E-01)
 number of electron   32.0000262 magnetization 
 augmentation part    -1.7929294 magnetization 

 Broyden mixing:
  rms(total) = 0.34646E-01    rms(broyden)= 0.34641E-01
  rms(prec ) = 0.59078E-01
  weight for this iteration     100.00

 eigenvalues of (default mixing * dielectric matrix)
  average eigenvalue GAMMA=   2.4816
  2.4816  2.4816

 Free energy of the ion-electron system (eV)
  ---------------------------------------------------
  alpha Z        PSCENC =        13.53118846
  Ewald energy   TEWEN  =      -915.94094829
  -1/2 Hartree   DENC   =       -61.56223857
  -V(xc)+E(xc)   XCENC  =       -71.49272904
  PAW double counting   =       306.84816303     -167.23697450
  entropy T*S    EENTRO =        -0.00000188
  eigenvalues    EBANDS =        30.55730070
  atomic energy  EATOM  =       824.48621262
  ---------------------------------------------------
  free energy    TOTEN  =       -40.81002747 eV

  energy without entropy =      -40.81002559  energy(sigma->0) =      -40.81002653


--------------------------------------------------------------------------------------------------------




----------------------------------------- Iteration    1(   8)  ---------------------------------------


    POTLOK:  VPU time    0.10: CPU time    0.10
    SETDIJ:  VPU time    0.04: CPU time    0.04
    EDDAV :  VPU time   23.70: CPU time   23.70
    DOS   :  VPU time    0.00: CPU time    0.00
    CHARGE:  VPU time    1.55: CPU time    1.55
    MIXING:  VPU time    0.00: CPU time    0.00
    ------------------------------------------
      LOOP:  VPU time   25.42: CPU time   25.42

 eigenvalue-minimisations  :  1985
 total energy-change (2. order) :-0.9347262E-02  (-0.3518533E-02)
 number of electron   32.0000263 magnetization 
 augmentation part    -1.7970484 magnetization 

 Broyden mixing:
  rms(total) = 0.66047E-02    rms(broyden)= 0.66034E-02
  rms(prec ) = 0.15327E-01
  weight for this iteration     100.00

 eigenvalues of (default mixing * dielectric matrix)
  average eigenvalue GAMMA=   2.1180
  1.4971  2.7833  2.0735

 Free energy of the ion-electron system (eV)
  ---------------------------------------------------
  alpha Z        PSCENC =        13.53118846
  Ewald energy   TEWEN  =      -915.94094829
  -1/2 Hartree   DENC   =       -61.29126875
  -V(xc)+E(xc)   XCENC  =       -71.47781776
  PAW double counting   =       302.39212040     -162.63889070
  entropy T*S    EENTRO =        -0.00000065
  eigenvalues    EBANDS =        30.12002994
  atomic energy  EATOM  =       824.48621262
  ---------------------------------------------------
  free energy    TOTEN  =       -40.81937473 eV

  energy without entropy =      -40.81937408  energy(sigma->0) =      -40.81937441


--------------------------------------------------------------------------------------------------------




----------------------------------------- Iteration    1(   9)  ---------------------------------------


    POTLOK:  VPU time    0.10: CPU time    0.10
    SETDIJ:  VPU time    0.04: CPU time    0.04
    EDDAV :  VPU time   24.66: CPU time   24.66
    DOS   :  VPU time    0.00: CPU time    0.00
    CHARGE:  VPU time    1.53: CPU time    1.53
    MIXING:  VPU time    0.00: CPU time    0.01
    ------------------------------------------
      LOOP:  VPU time   26.37: CPU time   26.37

 eigenvalue-minimisations  :  2091
 total energy-change (2. order) :-0.5405816E-03  (-0.1364772E-03)
 number of electron   32.0000263 magnetization 
 augmentation part    -1.7967361 magnetization 

 Broyden mixing:
  rms(total) = 0.45389E-02    rms(broyden)= 0.45385E-02
  rms(prec ) = 0.72296E-02
  weight for this iteration     100.00

 eigenvalues of (default mixing * dielectric matrix)
  average eigenvalue GAMMA=   2.2613
  1.0117  3.2716  2.6656  2.0961

 Free energy of the ion-electron system (eV)
  ---------------------------------------------------
  alpha Z        PSCENC =        13.53118846
  Ewald energy   TEWEN  =      -915.94094829
  -1/2 Hartree   DENC   =       -61.58940133
  -V(xc)+E(xc)   XCENC  =       -71.43304074
  PAW double counting   =       302.77844087     -163.03870174
  entropy T*S    EENTRO =        -0.00000068
  eigenvalues    EBANDS =        30.38633551
  atomic energy  EATOM  =       824.48621262
  ---------------------------------------------------
  free energy    TOTEN  =       -40.81991532 eV

  energy without entropy =      -40.81991463  energy(sigma->0) =      -40.81991497


--------------------------------------------------------------------------------------------------------




----------------------------------------- Iteration    1(  10)  ---------------------------------------


    POTLOK:  VPU time    0.10: CPU time    0.10
    SETDIJ:  VPU time    0.04: CPU time    0.04
    EDDAV :  VPU time   21.81: CPU time   21.82
    DOS   :  VPU time    0.00: CPU time    0.00
    CHARGE:  VPU time    1.51: CPU time    1.51
    MIXING:  VPU time    0.00: CPU time    0.01
    ------------------------------------------
      LOOP:  VPU time   23.50: CPU time   23.50

 eigenvalue-minimisations  :  1777
 total energy-change (2. order) :-0.1694606E-03  (-0.3336239E-04)
 number of electron   32.0000263 magnetization 
 augmentation part    -1.7967921 magnetization 

 Broyden mixing:
  rms(total) = 0.82675E-03    rms(broyden)= 0.82651E-03
  rms(prec ) = 0.14786E-02
  weight for this iteration     100.00

 eigenvalues of (default mixing * dielectric matrix)
  average eigenvalue GAMMA=   2.0086
  3.1838  2.5694  2.2091  1.1368  0.9437

 Free energy of the ion-electron system (eV)
  ---------------------------------------------------
  alpha Z        PSCENC =        13.53118846
  Ewald energy   TEWEN  =      -915.94094829
  -1/2 Hartree   DENC   =       -61.58481376
  -V(xc)+E(xc)   XCENC  =       -71.43898687
  PAW double counting   =       302.54286080     -162.80218425
  entropy T*S    EENTRO =        -0.00000060
  eigenvalues    EBANDS =        30.38658710
  atomic energy  EATOM  =       824.48621262
  ---------------------------------------------------
  free energy    TOTEN  =       -40.82008478 eV

  energy without entropy =      -40.82008417  energy(sigma->0) =      -40.82008447


--------------------------------------------------------------------------------------------------------




----------------------------------------- Iteration    1(  11)  ---------------------------------------


    POTLOK:  VPU time    0.10: CPU time    0.10
    SETDIJ:  VPU time    0.04: CPU time    0.04
    EDDAV :  VPU time   16.68: CPU time   16.68
    DOS   :  VPU time    0.00: CPU time    0.00
    ------------------------------------------
      LOOP:  VPU time   16.85: CPU time   16.85

 eigenvalue-minimisations  :  1190
 total energy-change (2. order) :-0.1861815E-05  (-0.1032957E-05)
 number of electron   32.0000263 magnetization 
 augmentation part    -1.7967921 magnetization 

 Free energy of the ion-electron system (eV)
  ---------------------------------------------------
  alpha Z        PSCENC =        13.53118846
  Ewald energy   TEWEN  =      -915.94094829
  -1/2 Hartree   DENC   =       -61.60706113
  -V(xc)+E(xc)   XCENC  =       -71.43599570
  PAW double counting   =       302.63081478     -162.89199489
  entropy T*S    EENTRO =        -0.00000062
  eigenvalues    EBANDS =        30.40769813
  atomic energy  EATOM  =       824.48621262
  ---------------------------------------------------
  free energy    TOTEN  =       -40.82008664 eV

  energy without entropy =      -40.82008602  energy(sigma->0) =      -40.82008633


--------------------------------------------------------------------------------------------------------




 average (electrostatic) potential at core
  the test charge radii are     0.9892
  (the norm of the test charge is              1.0000)
       1 -83.0597       2 -83.0597       3 -83.0597       4 -83.0597       5 -83.0597
       6 -83.0597       7 -83.0597       8 -83.0597
 
 
 
 E-fermi :   6.3023     XC(G=0):  -9.3914     alpha+bet :-12.0510
   add alpha+bet to get absolut eigen values

 k-point   1 :       0.5000    0.5000    0.5000
  band No.  band energies     occupation 
      1      -3.6992      2.00000
      2      -3.6992      2.00000
      3      -3.6992      2.00000
      4      -3.6992      2.00000
      5      -1.0506      2.00000
      6      -1.0506      2.00000
      7      -1.0506      2.00000
      8      -1.0506      2.00000
      9       4.7583      2.00000
     10       4.7583      2.00000
     11       4.7583      2.00000
     12       4.7583      2.00000
     13       4.7583      2.00000
     14       4.7583      2.00000
     15       4.7583      2.00000
     16       4.7583      2.00000
     17       7.5221      0.00000
     18       7.5221      0.00000
     19       7.5221      0.00000
     20       7.5221      0.00000
     21       9.2876      0.00000

 k-point   2 :       0.4444    0.4444    0.4444
  band No.  band energies     occupation 
      1      -3.8647      2.00000
      2      -3.6829      2.00000
      3      -3.6829      2.00000
      4      -3.6829      2.00000
      5      -1.0028      2.00000
      6      -1.0028      2.00000
      7      -1.0028      2.00000
      8      -0.8083      2.00000
      9       4.4655      2.00000
     10       4.4655      2.00000
     11       4.4655      2.00000
     12       4.6744      2.00000
     13       4.6744      2.00000
     14       4.6744      2.00000
     15       4.7807      2.00000
     16       4.7807      2.00000
     17       7.5496      0.00000
     18       7.8047      0.00000
     19       7.8047      0.00000
     20       7.8047      0.00000
     21       9.2272      0.00000

 k-point   3 :       0.3889    0.3889    0.3889
  band No.  band energies     occupation 
      1      -4.2398      2.00000
      2      -3.6318      2.00000
      3      -3.6318      2.00000
      4      -3.6318      2.00000
      5      -0.8682      2.00000
      6      -0.8682      2.00000
      7      -0.8682      2.00000
      8      -0.2032      2.00000
      9       3.8394      2.00000
     10       3.8394      2.00000
     11       3.8394      2.00000
     12       4.4563      2.00000
     13       4.4563      2.00000
     14       4.4563      2.00000
     15       4.8475      2.00000
     16       4.8475      2.00000
     17       7.6247      0.00000
     18       8.1603      0.00000
     19       8.1603      0.00000
     20       8.1603      0.00000
     21       9.3501      0.00000

 k-point   4 :       0.3333    0.3333    0.3333
  band No.  band energies     occupation 
      1      -4.6653      2.00000
      2      -3.5403      2.00000
      3      -3.5403      2.00000
      4      -3.5403      2.00000
      5      -0.6766      2.00000
      6      -0.6766      2.00000
      7      -0.6766      2.00000
      8       0.6012      2.00000
      9       3.1657      2.00000
     10       3.1657      2.00000
     11       3.1657      2.00000
     12       4.1717      2.00000
     13       4.1717      2.00000
     14       4.1717      2.00000
     15       4.9575      2.00000
     16       4.9575      2.00000
     17       7.7480      0.00000
     18       7.9960      0.00000
     19       7.9960      0.00000
     20       7.9960      0.00000
     21       9.4612      0.00000

 k-point   5 :       0.2778    0.2778    0.2778
  band No.  band energies     occupation 
      1      -5.0662      2.00000
      2      -3.4017      2.00000
      3      -3.4017      2.00000
      4      -3.4017      2.00000
      5      -0.4943      2.00000
      6      -0.4943      2.00000
      7      -0.4943      2.00000
      8       1.5253      2.00000
      9       2.5966      2.00000
     10       2.5966      2.00000
     11       2.5966      2.00000
     12       3.8766      2.00000
     13       3.8766      2.00000
     14       3.8766      2.00000
     15       5.1104      2.00000
     16       5.1104      2.00000
     17       7.6431      0.00000
     18       7.6431      0.00000
     19       7.6431      0.00000
     20       7.9151      0.00000
     21       9.4923      0.00000

 k-point   6 :       0.2222    0.2222    0.2222
  band No.  band energies     occupation 
      1      -5.4118      2.00000
      2      -3.2102      2.00000
      3      -3.2102      2.00000
      4      -3.2102      2.00000
      5      -0.4390      2.00000
      6      -0.4390      2.00000
      7      -0.4390      2.00000
      8       2.2716      2.00000
      9       2.2716      2.00000
     10       2.2716      2.00000
     11       2.5280      2.00000
     12       3.6071      2.00000
     13       3.6071      2.00000
     14       3.6071      2.00000
     15       5.3006      2.00000
     16       5.3006      2.00000
     17       7.2945      0.00000
     18       7.2945      0.00000
     19       7.2945      0.00000
     20       8.1165      0.00000
     21       9.4015      0.00000

 k-point   7 :       0.1667    0.1667    0.1667
  band No.  band energies     occupation 
      1      -5.6886      2.00000
      2      -2.9616      2.00000
      3      -2.9616      2.00000
      4      -2.9616      2.00000
      5      -0.6179      2.00000
      6      -0.6179      2.00000
      7      -0.6179      2.00000
      8       2.2907      2.00000
      9       2.2907      2.00000
     10       2.2907      2.00000
     11       3.3840      2.00000
     12       3.3840      2.00000
     13       3.3840      2.00000
     14       3.5767      2.00000
     15       5.5152      2.00000
     16       5.5152      2.00000
     17       7.0024      0.00000
     18       7.0024      0.00000
     19       7.0024      0.00000
     20       8.3297      0.00000
     21       8.6711      0.00000

 k-point   8 :       0.1111    0.1111    0.1111
  band No.  band energies     occupation 
      1      -5.8896      2.00000
      2      -2.6547      2.00000
      3      -2.6547      2.00000
      4      -2.6547      2.00000
      5      -0.9873      2.00000
      6      -0.9873      2.00000
      7      -0.9873      2.00000
      8       2.5753      2.00000
      9       2.5753      2.00000
     10       2.5753      2.00000
     11       3.2183      2.00000
     12       3.2183      2.00000
     13       3.2183      2.00000
     14       4.6205      2.00000
     15       5.7326      2.00000
     16       5.7326      2.00000
     17       6.7871      0.00000
     18       6.7871      0.00000
     19       6.7871      0.00000
     20       7.6892      0.00000
     21       7.6892      0.00000

 k-point   9 :       0.0556    0.0556    0.0556
  band No.  band energies     occupation 
      1      -6.0114      2.00000
      2      -2.2914      2.00000
      3      -2.2914      2.00000
      4      -2.2914      2.00000
      5      -1.4323      2.00000
      6      -1.4323      2.00000
      7      -1.4323      2.00000
      8       2.9202      2.00000
      9       2.9202      2.00000
     10       2.9202      2.00000
     11       3.1169      2.00000
     12       3.1169      2.00000
     13       3.1169      2.00000
     14       5.5394      2.00000
     15       5.9062      2.00000
     16       5.9062      2.00000
     17       6.6569      0.00000
     18       6.6569      0.00000
     19       6.6569      0.00000
     20       6.9628      0.00000
     21       6.9628      0.00000

 k-point  10 :       0.0000    0.0000    0.0000
  band No.  band energies     occupation 
      1      -6.0521      2.00000
      2      -1.8788      2.00000
      3      -1.8788      2.00000
      4      -1.8788      2.00000
      5      -1.8788      2.00000
      6      -1.8788      2.00000
      7      -1.8788      2.00000
      8       3.0827      2.00000
      9       3.0827      2.00000
     10       3.0827      2.00000
     11       3.0827      2.00000
     12       3.0827      2.00000
     13       3.0827      2.00000
     14       5.9755      2.00000
     15       5.9755      2.00000
     16       5.9755      2.00000
     17       6.6458      0.00000
     18       6.6458      0.00000
     19       6.6458      0.00000
     20       6.6458      0.00000
     21       6.6458      0.00000

 k-point  11 :       0.0000    0.0000    0.0000
  band No.  band energies     occupation 
      1      -6.0521      2.00000
      2      -1.8788      2.00000
      3      -1.8788      2.00000
      4      -1.8788      2.00000
      5      -1.8788      2.00000
      6      -1.8788      2.00000
      7      -1.8788      2.00000
      8       3.0827      2.00000
      9       3.0827      2.00000
     10       3.0827      2.00000
     11       3.0827      2.00000
     12       3.0827      2.00000
     13       3.0827      2.00000
     14       5.9755      2.00000
     15       5.9755      2.00000
     16       5.9755      2.00000
     17       6.6458      0.00000
     18       6.6458      0.00000
     19       6.6458      0.00000
     20       6.6458      0.00000
     21       6.6458      0.00000

 k-point  12 :       0.0000    0.0556    0.0556
  band No.  band energies     occupation 
      1      -6.0249      2.00000
      2      -2.2971      2.00000
      3      -2.2971      2.00000
      4      -1.8900      2.00000
      5      -1.8495      2.00000
      6      -1.4352      2.00000
      7      -1.4352      2.00000
      8       2.9066      2.00000
      9       3.0499      2.00000
     10       3.0499      2.00000
     11       3.0581      2.00000
     12       3.0581      2.00000
     13       3.1046      2.00000
     14       5.7069      2.00000
     15       5.8570      2.00000
     16       5.9634      2.00000
     17       6.6430      0.00000
     18       6.6430      0.00000
     19       6.6710      0.00000
     20       6.8363      0.00000
     21       6.8364      0.00000

 k-point  13 :       0.0000    0.1111    0.1111
  band No.  band energies     occupation 
      1      -5.9436      2.00000
      2      -2.6797      2.00000
      3      -2.6797      2.00000
      4      -1.9299      2.00000
      5      -1.7613      2.00000
      6      -0.9832      2.00000
      7      -0.9832      2.00000
      8       2.5062      2.00000
      9       2.9517      2.00000
     10       2.9517      2.00000
     11       3.0144      2.00000
     12       3.0144      2.00000
     13       3.1699      2.00000
     14       5.0974      2.00000
     15       5.5381      2.00000
     16       5.9254      2.00000
     17       6.7464      0.00000
     18       6.8257      0.00000
     19       6.8257      0.00000
     20       7.1915      0.00000
     21       7.1916      0.00000

 k-point  14 :       0.0000    0.1667    0.1667
  band No.  band energies     occupation 
      1      -5.8086      2.00000
      2      -3.0197      2.00000
      3      -3.0197      2.00000
      4      -2.0176      2.00000
      5      -1.6147      2.00000
      6      -0.5494      2.00000
      7      -0.5494      2.00000
      8       2.0738      2.00000
      9       2.8072      2.00000
     10       2.8072      2.00000
     11       3.0049      2.00000
     12       3.0049      2.00000
     13       3.2776      2.00000
     14       4.3778      2.00000
     15       5.0929      2.00000
     16       5.8561      2.00000
     17       6.8711      0.00000
     18       7.1666      0.00000
     19       7.1666      0.00000
     20       7.6781      0.00000
     21       7.6781      0.00000

 k-point  15 :       0.0000    0.2222    0.2222
  band No.  band energies     occupation 
      1      -5.6212      2.00000
      2      -3.3125      2.00000
      3      -3.3125      2.00000
      4      -2.1773      2.00000
      5      -1.4098      2.00000
      6      -0.1696      2.00000
      7      -0.1696      2.00000
      8       1.7300      2.00000
      9       2.6450      2.00000
     10       2.6450      2.00000
     11       3.0850      2.00000
     12       3.0850      2.00000
     13       3.4259      2.00000
     14       3.6409      2.00000
     15       4.5821      2.00000
     16       5.7488      2.00000
     17       7.0425      0.00000
     18       7.6309      0.00000
     19       7.6309      0.00000
     20       8.2692      0.00000
     21       8.2692      0.00000

 k-point  16 :       0.0000    0.2778    0.2778
  band No.  band energies     occupation 
      1      -5.3828      2.00000
      2      -3.5553      2.00000
      3      -3.5553      2.00000
      4      -2.4267      2.00000
      5      -1.1472      2.00000
      6       0.1209      2.00000
      7       0.1209      2.00000
      8       1.5339      2.00000
      9       2.4888      2.00000
     10       2.4888      2.00000
     11       2.9234      2.00000
     12       3.2968      2.00000
     13       3.2968      2.00000
     14       3.6117      2.00000
     15       4.0499      2.00000
     16       5.5970      2.00000
     17       7.2577      0.00000
     18       8.1885      0.00000
     19       8.1885      0.00000
     20       8.9442      0.00000
     21       8.9515      0.00000

 k-point  17 :       0.0000    0.3333    0.3333
  band No.  band energies     occupation 
      1      -5.0961      2.00000
      2      -3.7458      2.00000
      3      -3.7458      2.00000
      4      -2.7612      2.00000
      5      -0.8275      2.00000
      6       0.3087      2.00000
      7       0.3087      2.00000
      8       1.5001      2.00000
      9       2.2410      2.00000
     10       2.3553      2.00000
     11       2.3553      2.00000
     12       3.5242      2.00000
     13       3.6438      2.00000
     14       3.6438      2.00000
     15       3.8309      2.00000
     16       5.4016      2.00000
     17       7.5109      0.00000
     18       8.8151      0.00000
     19       8.8151      0.00000
     20       9.0186      0.00000
     21       9.5174      0.00000

 k-point  18 :       0.0000    0.3889    0.3889
  band No.  band energies     occupation 
      1      -4.7650      2.00000
      2      -3.8829      2.00000
      3      -3.8829      2.00000
      4      -3.1537      2.00000
      5      -0.4506      2.00000
      6       0.4101      2.00000
      7       0.4101      2.00000
      8       1.6004      2.00000
      9       1.6131      2.00000
     10       2.2536      2.00000
     11       2.2536      2.00000
     12       3.0245      2.00000
     13       4.0706      2.00000
     14       4.0706      2.00000
     15       4.0786      2.00000
     16       5.1667      2.00000
     17       7.7963      0.00000
     18       8.8987      0.00000
     19       9.2980      0.00000
     20       9.2985      0.00000
     21       9.4893      0.00000

 k-point  19 :       0.0000    0.4444    0.4444
  band No.  band energies     occupation 
      1      -4.3944      2.00000
      2      -3.9655      2.00000
      3      -3.9655      2.00000
      4      -3.5732      2.00000
      5      -0.0182      2.00000
      6       0.4560      2.00000
      7       0.4560      2.00000
      8       1.0092      2.00000
      9       1.8444      2.00000
     10       2.1906      2.00000
     11       2.1906      2.00000
     12       2.5684      2.00000
     13       4.3472      2.00000
     14       4.4587      2.00000
     15       4.4587      2.00000
     16       4.9040      2.00000
     17       8.1014      0.00000
     18       8.6569      0.00000
     19       8.6569      0.00000
     20       8.6850      0.00000
     21      10.1929      0.00000

 k-point  20 :       0.0000    0.5000    0.5000
  band No.  band energies     occupation 
      1      -3.9932      2.00000
      2      -3.9932      2.00000
      3      -3.9932      2.00000
      4      -3.9932      2.00000
      5       0.4687      2.00000
      6       0.4687      2.00000
      7       0.4687      2.00000
      8       0.4687      2.00000
      9       2.1692      2.00000
     10       2.1692      2.00000
     11       2.1692      2.00000
     12       2.1692      2.00000
     13       4.6258      2.00000
     14       4.6258      2.00000
     15       4.6258      2.00000
     16       4.6258      2.00000
     17       8.4069      0.00000
     18       8.4069      0.00000
     19       8.4069      0.00000
     20       8.4069      0.00000
     21      10.7548      0.00000

 k-point  21 :       0.0000    0.5000    0.5000
  band No.  band energies     occupation 
      1      -3.9932      2.00000
      2      -3.9932      2.00000
      3      -3.9932      2.00000
      4      -3.9932      2.00000
      5       0.4687      2.00000
      6       0.4687      2.00000
      7       0.4687      2.00000
      8       0.4687      2.00000
      9       2.1692      2.00000
     10       2.1692      2.00000
     11       2.1692      2.00000
     12       2.1692      2.00000
     13       4.6258      2.00000
     14       4.6258      2.00000
     15       4.6258      2.00000
     16       4.6258      2.00000
     17       8.4069      0.00000
     18       8.4069      0.00000
     19       8.4069      0.00000
     20       8.4069      0.00000
     21      10.7550      0.00000

 k-point  22 :       0.0278    0.5139    0.5139
  band No.  band energies     occupation 
      1      -4.0938      2.00000
      2      -3.9896      2.00000
      3      -3.9896      2.00000
      4      -3.8877      2.00000
      5       0.3210      2.00000
      6       0.4461      2.00000
      7       0.4461      2.00000
      8       0.5760      2.00000
      9       2.1067      2.00000
     10       2.1975      2.00000
     11       2.1975      2.00000
     12       2.2902      2.00000
     13       4.5569      2.00000
     14       4.6157      2.00000
     15       4.6157      2.00000
     16       4.6965      2.00000
     17       8.3332      0.00000
     18       8.4242      0.00000
     19       8.4242      0.00000
     20       8.4806      0.00000
     21      10.6424      0.00000

 k-point  23 :       0.0556    0.5278    0.5278
  band No.  band energies     occupation 
      1      -4.1882      2.00000
      2      -3.9789      2.00000
      3      -3.9789      2.00000
      4      -3.7791      2.00000
      5       0.1424      2.00000
      6       0.3829      2.00000
      7       0.3829      2.00000
      8       0.6422      2.00000
      9       2.0955      2.00000
     10       2.2772      2.00000
     11       2.2772      2.00000
     12       2.4689      2.00000
     13       4.4908      2.00000
     14       4.5856      2.00000
     15       4.5856      2.00000
     16       4.7677      2.00000
     17       8.2627      0.00000
     18       8.4752      0.00000
     19       8.4752      0.00000
     20       8.5498      0.00000
     21      10.4138      0.00000

 k-point  24 :       0.0833    0.5417    0.5417
  band No.  band energies     occupation 
      1      -4.2755      2.00000
      2      -3.9611      2.00000
      3      -3.9611      2.00000
      4      -3.6699      2.00000
      5      -0.0534      2.00000
      6       0.2898      2.00000
      7       0.2898      2.00000
      8       0.6746      2.00000
      9       2.1245      2.00000
     10       2.3967      2.00000
     11       2.3967      2.00000
     12       2.6952      2.00000
     13       4.4292      2.00000
     14       4.5383      2.00000
     15       4.5383      2.00000
     16       4.8369      2.00000
     17       8.1975      0.00000
     18       8.5574      0.00000
     19       8.5574      0.00000
     20       8.6067      0.00000
     21      10.1057      0.00000

 k-point  25 :       0.1111    0.5556    0.5556
  band No.  band energies     occupation 
      1      -4.3550      2.00000
      2      -3.9366      2.00000
      3      -3.9366      2.00000
      4      -3.5637      2.00000
      5      -0.2529      2.00000
      6       0.1783      2.00000
      7       0.1783      2.00000
      8       0.6836      2.00000
      9       2.1835      2.00000
     10       2.5425      2.00000
     11       2.5425      2.00000
     12       2.9573      2.00000
     13       4.3727      2.00000
     14       4.4770      2.00000
     15       4.4770      2.00000
     16       4.9015      2.00000
     17       8.1389      0.00000
     18       8.6398      0.00000
     19       8.6665      0.00000
     20       8.6665      0.00000
     21       9.7778      0.00000

 k-point  26 :       0.1389    0.5694    0.5694
  band No.  band energies     occupation 
      1      -4.4263      2.00000
      2      -3.9055      2.00000
      3      -3.9055      2.00000
      4      -3.4647      2.00000
      5      -0.4428      2.00000
      6       0.0573      2.00000
      7       0.0573      2.00000
      8       0.6781      2.00000
      9       2.2653      2.00000
     10       2.7014      2.00000
     11       2.7014      2.00000
     12       3.2422      2.00000
     13       4.3226      2.00000
     14       4.4068      2.00000
     15       4.4068      2.00000
     16       4.9598      2.00000
     17       8.0887      0.00000
     18       8.6321      0.00000
     19       8.7935      0.00000
     20       8.7935      0.00000
     21       9.4601      0.00000

 k-point  27 :       0.1667    0.5833    0.5833
  band No.  band energies     occupation 
      1      -4.4887      2.00000
      2      -3.8680      2.00000
      3      -3.8680      2.00000
      4      -3.3799      2.00000
      5      -0.6120      2.00000
      6      -0.0661      2.00000
      7      -0.0661      2.00000
      8       0.6652      2.00000
      9       2.3642      2.00000
     10       2.8624      2.00000
     11       2.8624      2.00000
     12       3.5403      2.00000
     13       4.2787      2.00000
     14       4.3335      2.00000
     15       4.3335      2.00000
     16       5.0084      2.00000
     17       8.0475      0.00000
     18       8.5652      0.00000
     19       8.8960      0.00000
     20       8.8961      0.00000
     21       9.2044      0.00000

 k-point  28 :       0.1944    0.5972    0.5972
  band No.  band energies     occupation 
      1      -4.5423      2.00000
      2      -3.8247      2.00000
      3      -3.8247      2.00000
      4      -3.3170      2.00000
      5      -0.7489      2.00000
      6      -0.1877      2.00000
      7      -0.1877      2.00000
      8       0.6494      2.00000
      9       2.4765      2.00000
     10       3.0119      2.00000
     11       3.0119      2.00000
     12       3.8421      2.00000
     13       4.2416      2.00000
     14       4.2637      2.00000
     15       4.2637      2.00000
     16       5.0439      2.00000
     17       8.0152      0.00000
     18       8.4340      0.00000
     19       8.7704      0.00000
     20       8.7704      0.00000
     21       9.2163      0.00000

 k-point  29 :       0.2222    0.6111    0.6111
  band No.  band energies     occupation 
      1      -4.5862      2.00000
      2      -3.7760      2.00000
      3      -3.7760      2.00000
      4      -3.2852      2.00000
      5      -0.8423      2.00000
      6      -0.3039      2.00000
      7      -0.3039      2.00000
      8       0.6338      2.00000
      9       2.5994      2.00000
     10       3.1360      2.00000
     11       3.1360      2.00000
     12       4.1382      2.00000
     13       4.2069      2.00000
     14       4.2069      2.00000
     15       4.2118      2.00000
     16       5.0643      2.00000
     17       7.9923      0.00000
     18       8.2604      0.00000
     19       8.5340      0.00000
     20       8.5340      0.00000
     21       9.3892      0.00000

 k-point  30 :       0.2500    0.6250    0.6250
  band No.  band energies     occupation 
      1      -4.6207      2.00000
      2      -3.7225      2.00000
      3      -3.7225      2.00000
      4      -3.2915      2.00000
      5      -0.8828      2.00000
      6      -0.4126      2.00000
      7      -0.4126      2.00000
      8       0.6202      2.00000
      9       2.7311      2.00000
     10       3.2183      2.00000
     11       3.2183      2.00000
     12       4.1717      2.00000
     13       4.1717      2.00000
     14       4.1893      2.00000
     15       4.4162      2.00000
     16       5.0668      2.00000
     17       7.9788      0.00000
     18       8.0750      0.00000
     19       8.3201      0.00000
     20       8.3201      0.00000
     21       9.4306      0.00000

 k-point  31 :       0.3750    0.7500    0.3750
  band No.  band energies     occupation 
      1      -4.6207      2.00000
      2      -3.7225      2.00000
      3      -3.7225      2.00000
      4      -3.2915      2.00000
      5      -0.8828      2.00000
      6      -0.4126      2.00000
      7      -0.4126      2.00000
      8       0.6202      2.00000
      9       2.7311      2.00000
     10       3.2183      2.00000
     11       3.2183      2.00000
     12       4.1717      2.00000
     13       4.1717      2.00000
     14       4.1893      2.00000
     15       4.4162      2.00000
     16       5.0668      2.00000
     17       7.9788      0.00000
     18       8.0750      0.00000
     19       8.3201      0.00000
     20       8.3201      0.00000
     21       9.4290      0.00000

 k-point  32 :       0.3333    0.6667    0.3333
  band No.  band energies     occupation 
      1      -4.6653      2.00000
      2      -3.5403      2.00000
      3      -3.5403      2.00000
      4      -3.5403      2.00000
      5      -0.6766      2.00000
      6      -0.6766      2.00000
      7      -0.6766      2.00000
      8       0.6012      2.00000
      9       3.1657      2.00000
     10       3.1657      2.00000
     11       3.1657      2.00000
     12       4.1717      2.00000
     13       4.1717      2.00000
     14       4.1717      2.00000
     15       4.9575      2.00000
     16       4.9575      2.00000
     17       7.7480      0.00000
     18       7.9960      0.00000
     19       7.9960      0.00000
     20       7.9960      0.00000
     21       9.4612      0.00000

 k-point  33 :       0.2917    0.5833    0.2917
  band No.  band energies     occupation 
      1      -4.6201      2.00000
      2      -3.9931      2.00000
      3      -3.3443      2.00000
      4      -3.3443      2.00000
      5      -0.8261      2.00000
      6      -0.8261      2.00000
      7      -0.1109      2.00000
      8       0.6188      2.00000
      9       2.8586      2.00000
     10       2.8586      2.00000
     11       3.6358      2.00000
     12       4.0537      2.00000
     13       4.0537      2.00000
     14       4.2290      2.00000
     15       4.6995      2.00000
     16       4.7604      2.00000
     17       8.0759      0.00000
     18       8.0840      0.00000
     19       8.2793      0.00000
     20       8.2793      0.00000
     21       9.2468      0.00000

 k-point  34 :       0.2500    0.5000    0.2500
  band No.  band energies     occupation 
      1      -4.4841      2.00000
      2      -4.4841      2.00000
      3      -3.1571      2.00000
      4      -3.1571      2.00000
      5      -0.8558      2.00000
      6      -0.8558      2.00000
      7       0.6550      2.00000
      8       0.6550      2.00000
      9       2.4841      2.00000
     10       2.4841      2.00000
     11       3.7815      2.00000
     12       3.7815      2.00000
     13       4.1191      2.00000
     14       4.1191      2.00000
     15       4.3629      2.00000
     16       4.3629      2.00000
     17       8.2108      0.00000
     18       8.2108      0.00000
     19       9.0434      0.00000
     20       9.0525      0.00000
     21       9.0857      0.00000

 k-point  35 :       0.2083    0.4167    0.2083
  band No.  band energies     occupation 
      1      -4.9402      2.00000
      2      -4.2581      2.00000
      3      -2.9892      2.00000
      4      -2.9892      2.00000
      5      -0.8088      2.00000
      6      -0.8088      2.00000
      7       0.6528      2.00000
      8       1.5450      2.00000
      9       2.1433      2.00000
     10       2.1433      2.00000
     11       3.4375      2.00000
     12       3.5122      2.00000
     13       3.5122      2.00000
     14       4.0151      2.00000
     15       4.5710      2.00000
     16       4.5931      2.00000
     17       7.8132      0.00000
     18       8.3276      0.00000
     19       8.4191      0.00000
     20       8.4191      0.00000
     21       9.4059      0.00000

 k-point  36 :       0.1667    0.3333    0.1667
  band No.  band energies     occupation 
      1      -5.3309      2.00000
      2      -3.9432      2.00000
      3      -2.8287      2.00000
      4      -2.8287      2.00000
      5      -0.7940      2.00000
      6      -0.7940      2.00000
      7       0.4947      2.00000
      8       1.9721      2.00000
      9       1.9721      2.00000
     10       2.5226      2.00000
     11       2.9455      2.00000
     12       3.3140      2.00000
     13       3.3140      2.00000
     14       3.6976      2.00000
     15       4.8471      2.00000
     16       5.0358      2.00000
     17       7.3758      0.00000
     18       7.8289      0.00000
     19       7.8289      0.00000
     20       8.4084      0.00000
     21       9.1859      0.00000

 k-point  37 :       0.1250    0.2500    0.1250
  band No.  band energies     occupation 
      1      -5.6429      2.00000
      2      -3.5423      2.00000
      3      -2.6528      2.00000
      4      -2.6528      2.00000
      5      -0.9252      2.00000
      6      -0.9252      2.00000
      7       0.0786      2.00000
      8       2.0855      2.00000
      9       2.0855      2.00000
     10       2.7774      2.00000
     11       3.1897      2.00000
     12       3.1897      2.00000
     13       3.4358      2.00000
     14       3.5565      2.00000
     15       5.1786      2.00000
     16       5.4222      2.00000
     17       7.0095      0.00000
     18       7.3300      0.00000
     19       7.3300      0.00000
     20       8.2669      0.00000
     21       8.4627      0.00000

 k-point  38 :       0.0833    0.1667    0.0833
  band No.  band energies     occupation 
      1      -5.8693      2.00000
      2      -3.0595      2.00000
      3      -2.4412      2.00000
      4      -2.4412      2.00000
      5      -1.2008      2.00000
      6      -1.2008      2.00000
      7      -0.5321      2.00000
      8       2.4478      2.00000
      9       2.4478      2.00000
     10       2.8572      2.00000
     11       3.1218      2.00000
     12       3.1218      2.00000
     13       3.2417      2.00000
     14       4.5975      2.00000
     15       5.5327      2.00000
     16       5.7219      2.00000
     17       6.7469      0.00000
     18       6.9497      0.00000
     19       6.9497      0.00000
     20       7.4891      0.00000
     21       7.8665      0.00000

 k-point  39 :       0.0417    0.0833    0.0417
  band No.  band energies     occupation 
      1      -6.0063      2.00000
      2      -2.5014      2.00000
      3      -2.1833      2.00000
      4      -2.1833      2.00000
      5      -1.5402      2.00000
      6      -1.5402      2.00000
      7      -1.2101      2.00000
      8       2.8752      2.00000
      9       2.8752      2.00000
     10       3.0094      2.00000
     11       3.0910      2.00000
     12       3.0910      2.00000
     13       3.1227      2.00000
     14       5.5274      2.00000
     15       5.8425      2.00000
     16       5.9113      2.00000
     17       6.6101      0.00001
     18       6.7101      0.00000
     19       6.7101      0.00000
     20       6.9315      0.00000
     21       7.0091      0.00000

 k-point  40 :       0.0000    0.0000    0.0000
  band No.  band energies     occupation 
      1      -6.0521      2.00000
      2      -1.8788      2.00000
      3      -1.8788      2.00000
      4      -1.8788      2.00000
      5      -1.8788      2.00000
      6      -1.8788      2.00000
      7      -1.8788      2.00000
      8       3.0827      2.00000
      9       3.0827      2.00000
     10       3.0827      2.00000
     11       3.0827      2.00000
     12       3.0827      2.00000
     13       3.0827      2.00000
     14       5.9755      2.00000
     15       5.9755      2.00000
     16       5.9755      2.00000
     17       6.6458      0.00000
     18       6.6458      0.00000
     19       6.6458      0.00000
     20       6.6458      0.00000
     21       6.6458      0.00000


--------------------------------------------------------------------------------------------------------


 soft charge-density along one line, spin component           1
         0         1         2         3         4         5         6         7         8         9
x    33.7968    0.0000    0.0000    0.0000   -0.9465    0.0000    0.0000    0.0000   -0.0149    0.0000
x     0.0000    0.0000    0.0000
y    33.7968    0.0000    0.0000    0.0000   -0.9465    0.0000    0.0000    0.0000   -0.0149    0.0000
y     0.0000    0.0000    0.0000
z    33.7968    0.0000    0.0000    0.0000   -0.9465    0.0000    0.0000    0.0000   -0.0149    0.0000
z     0.0000    0.0000    0.0000
 total charge-density along one line
x    32.0000    0.0000    0.0000    0.0000   -1.6815    0.0000    0.0000    0.0000   -0.0206    0.0000
x     0.0000    0.0000   -0.0017    0.0000    0.0000    0.0000    0.0004
y    32.0000    0.0000    0.0000    0.0000   -1.6815    0.0000    0.0000    0.0000   -0.0206    0.0000
y     0.0000    0.0000   -0.0017    0.0000    0.0000    0.0000    0.0004
z    32.0000    0.0000    0.0000    0.0000   -1.6815    0.0000    0.0000    0.0000   -0.0206    0.0000
z     0.0000    0.0000   -0.0017    0.0000    0.0000    0.0000    0.0004
 
 pseudopotential strength for first ion, spin component:           1
 18.398  -0.001   0.000   0.000   0.000   0.000   0.000   0.000
 -0.001   0.006   0.000   0.000   0.000   0.000   0.000   0.000
  0.000   0.000   4.178   0.000   0.000  -0.005   0.000   0.000
  0.000   0.000   0.000   4.178   0.000   0.000  -0.005   0.000
  0.000   0.000   0.000   0.000   4.178   0.000   0.000  -0.005
  0.000   0.000  -0.005   0.000   0.000   0.005   0.000   0.000
  0.000   0.000   0.000  -0.005   0.000   0.000   0.005   0.000
  0.000   0.000   0.000   0.000  -0.005   0.000   0.000   0.005
 total augmentation occupancy for first ion, spin component:           1
  1.441  -0.920   0.013   0.005   0.020  -0.006  -0.002  -0.010
 -0.920   0.903   0.009   0.004   0.014  -0.005  -0.002  -0.009
  0.013   0.009   1.092  -0.035  -0.007  -0.681   0.003   0.000
  0.005   0.004  -0.035   1.101  -0.025   0.003  -0.685   0.004
  0.020   0.014  -0.007  -0.025   1.001   0.000   0.003  -0.675
 -0.006  -0.005  -0.681   0.003   0.000   0.496   0.004   0.001
 -0.002  -0.002   0.003  -0.685   0.003   0.004   0.499   0.002
 -0.010  -0.009   0.000   0.004  -0.675   0.001   0.002   0.518


------------------------ aborting loop because EDIFF is reached ----------------------------------------


 


 total charge     
 
# of ion     s       p       d       tot
----------------------------------------
  1        0.734   0.989   0.000   1.724
  2        0.734   0.989   0.000   1.724
  3        0.734   0.989   0.000   1.724
  4        0.734   0.989   0.000   1.724
  5        0.734   0.989   0.000   1.724
  6        0.734   0.989   0.000   1.724
  7        0.734   0.989   0.000   1.724
  8        0.734   0.989   0.000   1.724
------------------------------------------------
tot        5.874   7.916   0.000  13.790
 


--------------------------------------------------------------------------------------------------------


    CHARGE:  VPU time    1.52: CPU time    1.52
    FORLOC:  VPU time    0.01: CPU time    0.01
    FORNL :  VPU time    5.07: CPU time    5.07
    STRESS:  VPU time    5.45: CPU time    5.45
    FORCOR:  VPU time    0.10: CPU time    0.11
    FORHAR:  VPU time    0.03: CPU time    0.03
    MIXING:  VPU time    0.01: CPU time    0.01


--------------------------------------------------------------------------------------------------------



  FREE ENERGIE OF THE ION-ELECTRON SYSTEM (eV)
  ---------------------------------------------------
  free  energy   TOTEN  =       -40.820087 eV

  energy  without entropy=      -40.820086  energy(sigma->0) =      -40.820086
 

  FORCE on cell =-STRESS in cart. coord.  units (eV/reduce length):
  Direction    X        Y        Z        XY       YZ       ZX
  --------------------------------------------------------------------------------------
  Alpha Z     13.53     13.53     13.53
  Ewald     -305.31   -305.31   -305.31      0.00      0.00      0.00
  Hartree     20.53     20.53     20.53      0.00      0.00      0.00
  E(xc)     -102.08   -102.08   -102.08      0.00      0.00      0.00
  Local     -118.48   -118.48   -118.48      0.00      0.00      0.00
  n-local    306.21    312.74    313.23     -0.60     -2.37     -1.43
  augment    -45.61    -45.61    -45.61      0.00      0.00      0.00
  Kinetic    230.02    230.46    232.63     -0.54     -2.76     -2.51
  -------------------------------------------------------------------------------------
  Total        4.35      4.35      4.35      0.00      0.00      0.00
  in kB       43.75     43.75     43.75      0.00      0.00      0.00
  external pressure =       43.75 kB  Pullay stress =        0.00 kB


 VOLUME and BASIS-vectors are now :
 -----------------------------------------------------------------------------
  energy-cutoff  :      240.00
  volume of cell :      159.22
      direct lattice vectors                 reciprocal lattice vectors
     5.420000000  0.000000000  0.000000000     0.184501845  0.000000000  0.000000000
     0.000000000  5.420000000  0.000000000     0.000000000  0.184501845  0.000000000
     0.000000000  0.000000000  5.420000000     0.000000000  0.000000000  0.184501845

  length of vectors
     5.420000000  5.420000000  5.420000000     0.184501845  0.184501845  0.184501845


 FORCES acting on ions
    electron-ion (+dipol)            ewald-force                    non-local-force                 convergence-correction
 -----------------------------------------------------------------------------------------------
   0.260E-13 -.202E-14 0.816E-15   -.688E-14 -.104E-13 -.377E-14   -.397E-16 0.104E-16 -.269E-16   -.699E-15 0.113E-14 -.441E-15
   0.298E-13 -.623E-14 -.824E-15   -.688E-14 -.109E-13 -.311E-14   -.163E-16 0.997E-17 -.434E-17   -.271E-15 -.873E-16 0.332E-15
   0.246E-13 -.184E-14 0.990E-15   -.222E-15 -.104E-13 -.311E-14   -.167E-16 0.911E-17 -.390E-16   -.632E-16 0.646E-15 0.521E-15
   0.213E-13 -.364E-14 0.476E-15   -.222E-15 -.109E-13 -.400E-14   -.293E-16 -.434E-17 -.477E-16   -.578E-15 0.835E-16 -.487E-15
   0.285E-13 -.574E-14 -.832E-14   0.610E-14 0.100E-13 0.374E-14   0.275E-16 0.867E-18 0.416E-16   -.479E-15 -.250E-15 -.140E-14
   0.223E-13 -.587E-14 -.128E-13   0.614E-14 0.111E-13 0.350E-14   0.291E-16 -.607E-17 0.312E-16   -.738E-16 -.120E-14 -.383E-14
   0.311E-13 -.794E-14 -.131E-13   0.105E-14 0.102E-13 0.349E-14   0.230E-16 -.147E-16 0.694E-17   0.377E-15 -.876E-15 -.369E-14
   0.275E-13 -.105E-13 -.128E-13   0.109E-14 0.112E-13 0.371E-14   0.327E-16 -.520E-17 0.312E-16   0.158E-15 -.745E-15 -.117E-14
 -----------------------------------------------------------------------------------------------
   0.211E-12 -.438E-13 -.456E-13   0.163E-15 -.810E-16 0.454E-15   0.104E-16 0.000E+00 -.694E-17   -.163E-14 -.130E-14 -.102E-13
 
 
 POSITION                                       TOTAL-FORCE (eV/Angst)
 -----------------------------------------------------------------------------------
      0.00000      0.00000      0.00000         0.000000      0.000000      0.000000
      0.00000      2.71000      2.71000         0.000000      0.000000      0.000000
      2.71000      0.00000      2.71000         0.000000      0.000000      0.000000
      2.71000      2.71000      0.00000         0.000000      0.000000      0.000000
      1.35500      1.35500      1.35500         0.000000      0.000000      0.000000
      1.35500      4.06500      4.06500         0.000000      0.000000      0.000000
      4.06500      1.35500      4.06500         0.000000      0.000000      0.000000
      4.06500      4.06500      1.35500         0.000000      0.000000      0.000000
 -----------------------------------------------------------------------------------
    total drift:                                0.000000      0.000000      0.000000


--------------------------------------------------------------------------------------------------------



 mean value of Nose-termostat <S>:     1.000 mean value of <T> :     0.000
 mean temperature <T/S>/<1/S>  :     0.000

 writing wavefunctions
     LOOP+:  VPU time  279.34: CPU time  279.39
 


 total charge     
 
# of ion     s       p       d       tot
----------------------------------------
  1        0.734   0.989   0.000   1.724
  2        0.734   0.989   0.000   1.724
  3        0.734   0.989   0.000   1.724
  4        0.734   0.989   0.000   1.724
  5        0.734   0.989   0.000   1.724
  6        0.734   0.989   0.000   1.724
  7        0.734   0.989   0.000   1.724
  8        0.734   0.989   0.000   1.724
------------------------------------------------
tot        5.874   7.916   0.000  13.790
 
  
  
 General timing and accounting informations for this job:
 ========================================================
  
                  Total CPU time used (sec):      283.877
                            User time (sec):      265.758
                          System time (sec):       18.119
                         Elapsed time (sec):      283.918
  
                   Maximum memory used (kb):           0.
                   Average memory used (kb):           0.
  
                          Minor page faults:      1672515
                          Major page faults:            0
                 Voluntary context switches:            1
