PROCAR lm decomposed
# of k-points:   40         # of bands:  21         # of ions:   8

 k-point    1 :    0.50000000 0.50000000 0.50000000     weight = 0.02500000

band   1 # energy   -3.69916697 # occ.  2.00000000
 
ion      s     py     pz     px    dxy    dyz    dz2    dxz    dx2    tot
  1  0.010  0.001  0.002  0.002  0.000  0.000  0.000  0.000  0.000  0.014
  2  0.075  0.002  0.001  0.000  0.000  0.000  0.000  0.000  0.000  0.078
  3  0.038  0.000  0.002  0.002  0.000  0.000  0.000  0.000  0.000  0.042
  4  0.104  0.002  0.000  0.001  0.000  0.000  0.000  0.000  0.000  0.106
  5  0.038  0.000  0.003  0.000  0.000  0.000  0.000  0.000  0.000  0.042
  6  0.018  0.003  0.000  0.001  0.000  0.000  0.000  0.000  0.000  0.022
  7  0.012  0.001  0.000  0.003  0.000  0.000  0.000  0.000  0.000  0.016
  8  0.159  0.000  0.001  0.000  0.000  0.000  0.000  0.000  0.000  0.160
tot  0.453  0.009  0.009  0.009  0.000  0.000  0.000  0.000  0.000  0.481
 
band   2 # energy   -3.69916697 # occ.  2.00000000
 
ion      s     py     pz     px    dxy    dyz    dz2    dxz    dx2    tot
  1  0.021  0.003  0.001  0.000  0.000  0.000  0.000  0.000  0.000  0.025
  2  0.007  0.001  0.003  0.000  0.000  0.000  0.000  0.000  0.000  0.011
  3  0.148  0.000  0.000  0.001  0.000  0.000  0.000  0.000  0.000  0.149
  4  0.051  0.000  0.000  0.003  0.000  0.000  0.000  0.000  0.000  0.054
  5  0.046  0.000  0.001  0.003  0.000  0.000  0.000  0.000  0.000  0.049
  6  0.144  0.001  0.000  0.001  0.000  0.000  0.000  0.000  0.000  0.145
  7  0.004  0.001  0.003  0.001  0.000  0.000  0.000  0.000  0.000  0.009
  8  0.033  0.003  0.001  0.000  0.000  0.000  0.000  0.000  0.000  0.037
tot  0.453  0.009  0.009  0.009  0.000  0.000  0.000  0.000  0.000  0.481
 
band   3 # energy   -3.69916697 # occ.  2.00000000
 
ion      s     py     pz     px    dxy    dyz    dz2    dxz    dx2    tot
  1  0.063  0.001  0.001  0.002  0.000  0.000  0.000  0.000  0.000  0.066
  2  0.079  0.001  0.001  0.001  0.000  0.000  0.000  0.000  0.000  0.082
  3  0.037  0.001  0.002  0.001  0.000  0.000  0.000  0.000  0.000  0.041
  4  0.048  0.002  0.001  0.001  0.000  0.000  0.000  0.000  0.000  0.051
  5  0.001  0.004  0.000  0.000  0.000  0.000  0.000  0.000  0.000  0.006
  6  0.000  0.000  0.004  0.000  0.000  0.000  0.000  0.000  0.000  0.005
  7  0.207  0.000  0.000  0.000  0.000  0.000  0.000  0.000  0.000  0.208
  8  0.018  0.000  0.000  0.004  0.000  0.000  0.000  0.000  0.000  0.023
tot  0.453  0.009  0.009  0.009  0.000  0.000  0.000  0.000  0.000  0.481
 
band   4 # energy   -3.69916697 # occ.  2.00000000
 
ion      s     py     pz     px    dxy    dyz    dz2    dxz    dx2    tot
  1  0.133  0.000  0.000  0.001  0.000  0.000  0.000  0.000  0.000  0.135
  2  0.066  0.000  0.000  0.003  0.000  0.000  0.000  0.000  0.000  0.069
  3  0.003  0.003  0.001  0.000  0.000  0.000  0.000  0.000  0.000  0.008
  4  0.024  0.001  0.003  0.000  0.000  0.000  0.000  0.000  0.000  0.028
  5  0.142  0.000  0.000  0.001  0.000  0.000  0.000  0.000  0.000  0.144
  6  0.065  0.000  0.000  0.003  0.000  0.000  0.000  0.000  0.000  0.068
  7  0.003  0.003  0.001  0.000  0.000  0.000  0.000  0.000  0.000  0.008
  8  0.017  0.001  0.003  0.000  0.000  0.000  0.000  0.000  0.000  0.021
tot  0.453  0.009  0.009  0.009  0.000  0.000  0.000  0.000  0.000  0.481
 
band   5 # energy   -1.05063625 # occ.  2.00000000
 
ion      s     py     pz     px    dxy    dyz    dz2    dxz    dx2    tot
  1  0.012  0.016  0.008  0.004  0.000  0.000  0.000  0.000  0.000  0.040
  2  0.013  0.008  0.016  0.004  0.000  0.000  0.000  0.000  0.000  0.040
  3  0.048  0.004  0.004  0.008  0.000  0.000  0.000  0.000  0.000  0.064
  4  0.025  0.004  0.004  0.016  0.000  0.000  0.000  0.000  0.000  0.049
  5  0.082  0.001  0.001  0.003  0.000  0.000  0.000  0.000  0.000  0.087
  6  0.010  0.001  0.001  0.027  0.000  0.000  0.000  0.000  0.000  0.039
  7  0.002  0.027  0.003  0.001  0.000  0.000  0.000  0.000  0.000  0.034
  8  0.003  0.003  0.027  0.001  0.000  0.000  0.000  0.000  0.000  0.034
tot  0.195  0.064  0.064  0.064  0.000  0.000  0.000  0.000  0.000  0.387
 
band   6 # energy   -1.05063625 # occ.  2.00000000
 
ion      s     py     pz     px    dxy    dyz    dz2    dxz    dx2    tot
  1  0.005  0.010  0.003  0.017  0.000  0.000  0.000  0.000  0.000  0.036
  2  0.051  0.003  0.010  0.002  0.000  0.000  0.000  0.000  0.000  0.066
  3  0.031  0.002  0.017  0.003  0.000  0.000  0.000  0.000  0.000  0.053
  4  0.010  0.017  0.002  0.010  0.000  0.000  0.000  0.000  0.000  0.039
  5  0.005  0.022  0.003  0.006  0.000  0.000  0.000  0.000  0.000  0.035
  6  0.018  0.003  0.022  0.002  0.000  0.000  0.000  0.000  0.000  0.044
  7  0.066  0.002  0.006  0.003  0.000  0.000  0.000  0.000  0.000  0.076
  8  0.009  0.006  0.002  0.022  0.000  0.000  0.000  0.000  0.000  0.038
tot  0.195  0.064  0.064  0.064  0.000  0.000  0.000  0.000  0.000  0.387
 
band   7 # energy   -1.05063625 # occ.  2.00000000
 
ion      s     py     pz     px    dxy    dyz    dz2    dxz    dx2    tot
  1  0.014  0.001  0.019  0.008  0.000  0.000  0.000  0.000  0.000  0.041
  2  0.023  0.019  0.001  0.005  0.000  0.000  0.000  0.000  0.000  0.048
  3  0.003  0.005  0.008  0.019  0.000  0.000  0.000  0.000  0.000  0.034
  4  0.057  0.008  0.005  0.001  0.000  0.000  0.000  0.000  0.000  0.070
  5  0.005  0.005  0.008  0.017  0.000  0.000  0.000  0.000  0.000  0.035
  6  0.052  0.008  0.005  0.002  0.000  0.000  0.000  0.000  0.000  0.067
  7  0.015  0.002  0.017  0.008  0.000  0.000  0.000  0.000  0.000  0.042
  8  0.026  0.017  0.002  0.005  0.000  0.000  0.000  0.000  0.000  0.049
tot  0.195  0.064  0.064  0.064  0.000  0.000  0.000  0.000  0.000  0.387
 
band   8 # energy   -1.05063625 # occ.  2.00000000
 
ion      s     py     pz     px    dxy    dyz    dz2    dxz    dx2    tot
  1  0.066  0.005  0.002  0.003  0.000  0.000  0.000  0.000  0.000  0.076
  2  0.011  0.002  0.005  0.022  0.000  0.000  0.000  0.000  0.000  0.039
  3  0.015  0.022  0.003  0.002  0.000  0.000  0.000  0.000  0.000  0.042
  4  0.005  0.003  0.022  0.005  0.000  0.000  0.000  0.000  0.000  0.036
  5  0.005  0.005  0.020  0.006  0.000  0.000  0.000  0.000  0.000  0.036
  6  0.018  0.020  0.005  0.002  0.000  0.000  0.000  0.000  0.000  0.044
  7  0.014  0.002  0.006  0.020  0.000  0.000  0.000  0.000  0.000  0.042
  8  0.060  0.006  0.002  0.005  0.000  0.000  0.000  0.000  0.000  0.073
tot  0.195  0.064  0.064  0.064  0.000  0.000  0.000  0.000  0.000  0.387
 
band   9 # energy    4.75831111 # occ.  2.00000000
 
ion      s     py     pz     px    dxy    dyz    dz2    dxz    dx2    tot
  1  0.000  0.007  0.037  0.004  0.000  0.000  0.000  0.000  0.000  0.047
  2  0.000  0.007  0.037  0.018  0.000  0.000  0.000  0.000  0.000  0.063
  3  0.000  0.012  0.013  0.011  0.000  0.000  0.000  0.000  0.000  0.036
  4  0.000  0.002  0.060  0.012  0.000  0.000  0.000  0.000  0.000  0.075
  5  0.000  0.006  0.012  0.032  0.000  0.000  0.000  0.000  0.000  0.050
  6  0.000  0.002  0.028  0.001  0.000  0.000  0.000  0.000  0.000  0.031
  7  0.000  0.001  0.104  0.004  0.000  0.000  0.000  0.000  0.000  0.108
  8  0.000  0.020  0.004  0.008  0.000  0.000  0.000  0.000  0.000  0.033
tot  0.000  0.057  0.294  0.093  0.000  0.000  0.000  0.000  0.000  0.444
 
band  10 # energy    4.75831111 # occ.  2.00000000
 
ion      s     py     pz     px    dxy    dyz    dz2    dxz    dx2    tot
  1  0.000  0.004  0.044  0.021  0.000  0.000  0.000  0.000  0.000  0.069
  2  0.000  0.009  0.019  0.010  0.000  0.000  0.000  0.000  0.000  0.038
  3  0.000  0.006  0.053  0.013  0.000  0.000  0.000  0.000  0.000  0.072
  4  0.000  0.007  0.030  0.006  0.000  0.000  0.000  0.000  0.000  0.043
  5  0.000  0.014  0.006  0.008  0.000  0.000  0.000  0.000  0.000  0.028
  6  0.000  0.002  0.078  0.015  0.000  0.000  0.000  0.000  0.000  0.094
  7  0.000  0.006  0.023  0.001  0.000  0.000  0.000  0.000  0.000  0.030
  8  0.000  0.004  0.040  0.026  0.000  0.000  0.000  0.000  0.000  0.070
tot  0.000  0.052  0.293  0.098  0.000  0.000  0.000  0.000  0.000  0.444
 
band  11 # energy    4.75831111 # occ.  2.00000000
 
ion      s     py     pz     px    dxy    dyz    dz2    dxz    dx2    tot
  1  0.000  0.012  0.041  0.004  0.000  0.000  0.000  0.000  0.000  0.057
  2  0.000  0.008  0.062  0.009  0.000  0.000  0.000  0.000  0.000  0.079
  3  0.000  0.006  0.015  0.013  0.000  0.000  0.000  0.000  0.000  0.034
  4  0.000  0.004  0.028  0.020  0.000  0.000  0.000  0.000  0.000  0.051
  5  0.000  0.005  0.050  0.001  0.000  0.000  0.000  0.000  0.000  0.056
  6  0.000  0.010  0.021  0.025  0.000  0.000  0.000  0.000  0.000  0.055
  7  0.000  0.013  0.002  0.016  0.000  0.000  0.000  0.000  0.000  0.032
  8  0.000  0.001  0.073  0.005  0.000  0.000  0.000  0.000  0.000  0.080
tot  0.000  0.058  0.293  0.093  0.000  0.000  0.000  0.000  0.000  0.444
 
band  12 # energy    4.75831111 # occ.  2.00000000
 
ion      s     py     pz     px    dxy    dyz    dz2    dxz    dx2    tot
  1  0.000  0.010  0.025  0.015  0.000  0.000  0.000  0.000  0.000  0.049
  2  0.000  0.008  0.027  0.004  0.000  0.000  0.000  0.000  0.000  0.039
  3  0.000  0.010  0.064  0.006  0.000  0.000  0.000  0.000  0.000  0.081
  4  0.000  0.021  0.028  0.005  0.000  0.000  0.000  0.000  0.000  0.053
  5  0.000  0.005  0.077  0.007  0.000  0.000  0.000  0.000  0.000  0.089
  6  0.000  0.025  0.020  0.002  0.000  0.000  0.000  0.000  0.000  0.047
  7  0.000  0.016  0.017  0.015  0.000  0.000  0.000  0.000  0.000  0.048
  8  0.000  0.003  0.030  0.006  0.000  0.000  0.000  0.000  0.000  0.038
tot  0.000  0.096  0.287  0.060  0.000  0.000  0.000  0.000  0.000  0.444
 
band  13 # energy    4.75831112 # occ.  2.00000000
 
ion      s     py     pz     px    dxy    dyz    dz2    dxz    dx2    tot
  1  0.000  0.048  0.000  0.014  0.000  0.000  0.000  0.000  0.000  0.062
  2  0.000  0.042  0.001  0.014  0.000  0.000  0.000  0.000  0.000  0.056
  3  0.000  0.015  0.000  0.036  0.000  0.000  0.000  0.000  0.000  0.051
  4  0.000  0.014  0.000  0.038  0.000  0.000  0.000  0.000  0.000  0.052
  5  0.000  0.011  0.000  0.047  0.000  0.000  0.000  0.000  0.000  0.058
  6  0.000  0.029  0.000  0.022  0.000  0.000  0.000  0.000  0.000  0.051
  7  0.000  0.026  0.000  0.024  0.000  0.000  0.000  0.000  0.000  0.050
  8  0.000  0.054  0.000  0.008  0.000  0.000  0.000  0.000  0.000  0.062
tot  0.000  0.239  0.002  0.203  0.000  0.000  0.000  0.000  0.000  0.444
 
band  14 # energy    4.75831112 # occ.  2.00000000
 
ion      s     py     pz     px    dxy    dyz    dz2    dxz    dx2    tot
  1  0.000  0.038  0.000  0.024  0.000  0.000  0.000  0.000  0.000  0.062
  2  0.000  0.050  0.000  0.001  0.000  0.000  0.000  0.000  0.000  0.052
  3  0.000  0.002  0.000  0.045  0.000  0.000  0.000  0.000  0.000  0.047
  4  0.000  0.031  0.000  0.030  0.000  0.000  0.000  0.000  0.000  0.061
  5  0.000  0.044  0.000  0.019  0.000  0.000  0.000  0.000  0.000  0.063
  6  0.000  0.048  0.000  0.003  0.000  0.000  0.000  0.000  0.000  0.052
  7  0.000  0.003  0.000  0.041  0.000  0.000  0.000  0.000  0.000  0.045
  8  0.000  0.024  0.000  0.038  0.000  0.000  0.000  0.000  0.000  0.062
tot  0.000  0.240  0.002  0.201  0.000  0.000  0.000  0.000  0.000  0.444
 
band  15 # energy    4.75831112 # occ.  2.00000000
 
ion      s     py     pz     px    dxy    dyz    dz2    dxz    dx2    tot
  1  0.000  0.010  0.000  0.003  0.000  0.000  0.000  0.000  0.000  0.014
  2  0.000  0.004  0.000  0.086  0.000  0.000  0.000  0.000  0.000  0.090
  3  0.000  0.092  0.001  0.004  0.000  0.000  0.000  0.000  0.000  0.097
  4  0.000  0.007  0.000  0.013  0.000  0.000  0.000  0.000  0.000  0.021
  5  0.000  0.034  0.000  0.032  0.000  0.000  0.000  0.000  0.000  0.067
  6  0.000  0.003  0.000  0.034  0.000  0.000  0.000  0.000  0.000  0.037
  7  0.000  0.036  0.001  0.003  0.000  0.000  0.000  0.000  0.000  0.040
  8  0.000  0.041  0.000  0.037  0.000  0.000  0.000  0.000  0.000  0.078
tot  0.000  0.228  0.002  0.213  0.000  0.000  0.000  0.000  0.000  0.444
 
band  16 # energy    4.75831112 # occ.  2.00000000
 
ion      s     py     pz     px    dxy    dyz    dz2    dxz    dx2    tot
  1  0.000  0.019  0.001  0.063  0.000  0.000  0.000  0.000  0.000  0.084
  2  0.000  0.020  0.001  0.006  0.000  0.000  0.000  0.000  0.000  0.026
  3  0.000  0.005  0.002  0.018  0.000  0.000  0.000  0.000  0.000  0.025
  4  0.000  0.061  0.001  0.024  0.000  0.000  0.000  0.000  0.000  0.086
  5  0.000  0.029  0.002  0.002  0.000  0.000  0.000  0.000  0.000  0.033
  6  0.000  0.029  0.002  0.046  0.000  0.000  0.000  0.000  0.000  0.077
  7  0.000  0.046  0.000  0.044  0.000  0.000  0.000  0.000  0.000  0.090
  8  0.000  0.002  0.000  0.019  0.000  0.000  0.000  0.000  0.000  0.021
tot  0.000  0.212  0.009  0.222  0.000  0.000  0.000  0.000  0.000  0.444
 
band  17 # energy    7.52210474 # occ.  0.00000000
 
ion      s     py     pz     px    dxy    dyz    dz2    dxz    dx2    tot
  1  0.041  0.002  0.000  0.003  0.000  0.000  0.000  0.000  0.000  0.046
  2  0.083  0.000  0.002  0.001  0.000  0.000  0.000  0.000  0.000  0.087
  3  0.052  0.001  0.003  0.000  0.000  0.000  0.000  0.000  0.000  0.056
  4  0.013  0.003  0.001  0.002  0.000  0.000  0.000  0.000  0.000  0.019
  5  0.061  0.002  0.001  0.001  0.000  0.000  0.000  0.000  0.000  0.065
  6  0.039  0.001  0.002  0.002  0.000  0.000  0.000  0.000  0.000  0.044
  7  0.058  0.002  0.001  0.001  0.000  0.000  0.000  0.000  0.000  0.062
  8  0.031  0.001  0.002  0.002  0.000  0.000  0.000  0.000  0.000  0.036
tot  0.377  0.013  0.013  0.013  0.000  0.000  0.000  0.000  0.000  0.415
 
band  18 # energy    7.52210476 # occ.  0.00000000
 
ion      s     py     pz     px    dxy    dyz    dz2    dxz    dx2    tot
  1  0.078  0.000  0.001  0.003  0.000  0.000  0.000  0.000  0.000  0.082
  2  0.076  0.001  0.000  0.003  0.000  0.000  0.000  0.000  0.000  0.080
  3  0.006  0.003  0.003  0.001  0.000  0.000  0.000  0.000  0.000  0.012
  4  0.028  0.003  0.003  0.000  0.000  0.000  0.000  0.000  0.000  0.034
  5  0.003  0.003  0.002  0.001  0.000  0.000  0.000  0.000  0.000  0.010
  6  0.035  0.002  0.003  0.000  0.000  0.000  0.000  0.000  0.000  0.040
  7  0.092  0.000  0.001  0.002  0.000  0.000  0.000  0.000  0.000  0.096
  8  0.057  0.001  0.000  0.003  0.000  0.000  0.000  0.000  0.000  0.062
tot  0.377  0.013  0.013  0.013  0.000  0.000  0.000  0.000  0.000  0.415
 
band  19 # energy    7.52210478 # occ.  0.00000000
 
ion      s     py     pz     px    dxy    dyz    dz2    dxz    dx2    tot
  1  0.022  0.004  0.001  0.001  0.000  0.000  0.000  0.000  0.000  0.027
  2  0.021  0.001  0.004  0.001  0.000  0.000  0.000  0.000  0.000  0.026
  3  0.127  0.001  0.001  0.001  0.000  0.000  0.000  0.000  0.000  0.129
  4  0.019  0.001  0.001  0.004  0.000  0.000  0.000  0.000  0.000  0.025
  5  0.041  0.000  0.001  0.003  0.000  0.000  0.000  0.000  0.000  0.046
  6  0.104  0.001  0.000  0.001  0.000  0.000  0.000  0.000  0.000  0.106
  7  0.009  0.001  0.003  0.001  0.000  0.000  0.000  0.000  0.000  0.015
  8  0.034  0.003  0.001  0.000  0.000  0.000  0.000  0.000  0.000  0.039
tot  0.377  0.013  0.013  0.013  0.000  0.000  0.000  0.000  0.000  0.415
 
band  20 # energy    7.52210481 # occ.  0.00000000
 
ion      s     py     pz     px    dxy    dyz    dz2    dxz    dx2    tot
  1  0.048  0.000  0.004  0.000  0.000  0.000  0.000  0.000  0.000  0.052
  2  0.008  0.004  0.000  0.002  0.000  0.000  0.000  0.000  0.000  0.014
  3  0.005  0.002  0.000  0.004  0.000  0.000  0.000  0.000  0.000  0.011
  4  0.128  0.000  0.002  0.000  0.000  0.000  0.000  0.000  0.000  0.130
  5  0.083  0.001  0.002  0.000  0.000  0.000  0.000  0.000  0.000  0.086
  6  0.011  0.002  0.001  0.003  0.000  0.000  0.000  0.000  0.000  0.017
  7  0.029  0.003  0.000  0.002  0.000  0.000  0.000  0.000  0.000  0.034
  8  0.066  0.000  0.003  0.001  0.000  0.000  0.000  0.000  0.000  0.070
tot  0.377  0.013  0.013  0.013  0.000  0.000  0.000  0.000  0.000  0.415
 
band  21 # energy    9.28762808 # occ.  0.00000000
 
ion      s     py     pz     px    dxy    dyz    dz2    dxz    dx2    tot
  1  0.000  0.014  0.006  0.011  0.000  0.000  0.000  0.000  0.000  0.031
  2  0.000  0.003  0.001  0.005  0.000  0.000  0.000  0.000  0.000  0.010
  3  0.000  0.010  0.004  0.001  0.000  0.000  0.000  0.000  0.000  0.015
  4  0.000  0.004  0.029  0.007  0.000  0.000  0.000  0.000  0.000  0.040
  5  0.000  0.013  0.011  0.005  0.000  0.000  0.000  0.000  0.000  0.029
  6  0.000  0.001  0.017  0.001  0.000  0.000  0.000  0.000  0.000  0.018
  7  0.000  0.008  0.002  0.010  0.000  0.000  0.000  0.000  0.000  0.020
  8  0.000  0.009  0.011  0.008  0.000  0.000  0.000  0.000  0.000  0.028
tot  0.000  0.062  0.081  0.047  0.000  0.000  0.000  0.000  0.000  0.191
 

 k-point    2 :    0.44444444 0.44444444 0.44444444     weight = 0.02500000

band   1 # energy   -3.86474444 # occ.  2.00000000
 
ion      s     py     pz     px    dxy    dyz    dz2    dxz    dx2    tot
  1  0.055  0.001  0.001  0.001  0.000  0.000  0.000  0.000  0.000  0.059
  2  0.055  0.001  0.001  0.001  0.000  0.000  0.000  0.000  0.000  0.059
  3  0.055  0.001  0.001  0.001  0.000  0.000  0.000  0.000  0.000  0.059
  4  0.055  0.001  0.001  0.001  0.000  0.000  0.000  0.000  0.000  0.059
  5  0.055  0.001  0.001  0.001  0.000  0.000  0.000  0.000  0.000  0.059
  6  0.055  0.001  0.001  0.001  0.000  0.000  0.000  0.000  0.000  0.059
  7  0.055  0.001  0.001  0.001  0.000  0.000  0.000  0.000  0.000  0.059
  8  0.055  0.001  0.001  0.001  0.000  0.000  0.000  0.000  0.000  0.059
tot  0.443  0.010  0.010  0.010  0.000  0.000  0.000  0.000  0.000  0.473
 
band   2 # energy   -3.68287350 # occ.  2.00000000
 
ion      s     py     pz     px    dxy    dyz    dz2    dxz    dx2    tot
  1  0.071  0.001  0.001  0.001  0.000  0.000  0.000  0.000  0.000  0.074
  2  0.064  0.001  0.001  0.001  0.000  0.000  0.000  0.000  0.000  0.067
  3  0.048  0.001  0.002  0.001  0.000  0.000  0.000  0.000  0.000  0.052
  4  0.043  0.001  0.002  0.001  0.000  0.000  0.000  0.000  0.000  0.047
  5  0.071  0.001  0.001  0.001  0.000  0.000  0.000  0.000  0.000  0.074
  6  0.064  0.001  0.001  0.001  0.000  0.000  0.000  0.000  0.000  0.067
  7  0.048  0.001  0.002  0.001  0.000  0.000  0.000  0.000  0.000  0.052
  8  0.043  0.001  0.002  0.001  0.000  0.000  0.000  0.000  0.000  0.047
tot  0.451  0.009  0.011  0.009  0.000  0.000  0.000  0.000  0.000  0.480
 
band   3 # energy   -3.68287350 # occ.  2.00000000
 
ion      s     py     pz     px    dxy    dyz    dz2    dxz    dx2    tot
  1  0.060  0.001  0.002  0.001  0.000  0.000  0.000  0.000  0.000  0.064
  2  0.036  0.002  0.001  0.001  0.000  0.000  0.000  0.000  0.000  0.040
  3  0.053  0.002  0.001  0.001  0.000  0.000  0.000  0.000  0.000  0.056
  4  0.076  0.000  0.001  0.002  0.000  0.000  0.000  0.000  0.000  0.080
  5  0.060  0.002  0.001  0.001  0.000  0.000  0.000  0.000  0.000  0.064
  6  0.036  0.001  0.001  0.002  0.000  0.000  0.000  0.000  0.000  0.040
  7  0.053  0.001  0.001  0.002  0.000  0.000  0.000  0.000  0.000  0.056
  8  0.076  0.001  0.001  0.001  0.000  0.000  0.000  0.000  0.000  0.080
tot  0.451  0.010  0.009  0.010  0.000  0.000  0.000  0.000  0.000  0.480
 
band   4 # energy   -3.68287350 # occ.  2.00000000
 
ion      s     py     pz     px    dxy    dyz    dz2    dxz    dx2    tot
  1  0.038  0.002  0.001  0.001  0.000  0.000  0.000  0.000  0.000  0.042
  2  0.069  0.001  0.001  0.001  0.000  0.000  0.000  0.000  0.000  0.073
  3  0.069  0.000  0.001  0.002  0.000  0.000  0.000  0.000  0.000  0.072
  4  0.049  0.002  0.001  0.001  0.000  0.000  0.000  0.000  0.000  0.053
  5  0.038  0.001  0.001  0.002  0.000  0.000  0.000  0.000  0.000  0.042
  6  0.069  0.002  0.001  0.000  0.000  0.000  0.000  0.000  0.000  0.073
  7  0.069  0.001  0.001  0.001  0.000  0.000  0.000  0.000  0.000  0.072
  8  0.049  0.001  0.001  0.002  0.000  0.000  0.000  0.000  0.000  0.053
tot  0.451  0.010  0.009  0.010  0.000  0.000  0.000  0.000  0.000  0.480
 
band   5 # energy   -1.00276065 # occ.  2.00000000
 
ion      s     py     pz     px    dxy    dyz    dz2    dxz    dx2    tot
  1  0.024  0.005  0.014  0.006  0.000  0.000  0.000  0.000  0.000  0.048
  2  0.020  0.013  0.005  0.008  0.000  0.000  0.000  0.000  0.000  0.045
  3  0.014  0.007  0.006  0.014  0.000  0.000  0.000  0.000  0.000  0.041
  4  0.042  0.007  0.007  0.004  0.000  0.000  0.000  0.000  0.000  0.061
  5  0.024  0.004  0.013  0.007  0.000  0.000  0.000  0.000  0.000  0.048
  6  0.020  0.014  0.004  0.007  0.000  0.000  0.000  0.000  0.000  0.045
  7  0.014  0.008  0.006  0.013  0.000  0.000  0.000  0.000  0.000  0.041
  8  0.042  0.006  0.008  0.005  0.000  0.000  0.000  0.000  0.000  0.061
tot  0.199  0.063  0.064  0.064  0.000  0.000  0.000  0.000  0.000  0.391
 
band   6 # energy   -1.00276065 # occ.  2.00000000
 
ion      s     py     pz     px    dxy    dyz    dz2    dxz    dx2    tot
  1  0.030  0.006  0.006  0.009  0.000  0.000  0.000  0.000  0.000  0.052
  2  0.029  0.007  0.006  0.010  0.000  0.000  0.000  0.000  0.000  0.052
  3  0.019  0.009  0.010  0.007  0.000  0.000  0.000  0.000  0.000  0.045
  4  0.021  0.009  0.010  0.006  0.000  0.000  0.000  0.000  0.000  0.046
  5  0.030  0.006  0.007  0.009  0.000  0.000  0.000  0.000  0.000  0.052
  6  0.029  0.006  0.006  0.010  0.000  0.000  0.000  0.000  0.000  0.052
  7  0.019  0.010  0.009  0.007  0.000  0.000  0.000  0.000  0.000  0.045
  8  0.021  0.010  0.009  0.006  0.000  0.000  0.000  0.000  0.000  0.046
tot  0.199  0.064  0.063  0.064  0.000  0.000  0.000  0.000  0.000  0.391
 
band   7 # energy   -1.00276065 # occ.  2.00000000
 
ion      s     py     pz     px    dxy    dyz    dz2    dxz    dx2    tot
  1  0.021  0.013  0.004  0.008  0.000  0.000  0.000  0.000  0.000  0.046
  2  0.026  0.004  0.013  0.006  0.000  0.000  0.000  0.000  0.000  0.049
  3  0.041  0.007  0.008  0.003  0.000  0.000  0.000  0.000  0.000  0.060
  4  0.012  0.008  0.007  0.013  0.000  0.000  0.000  0.000  0.000  0.040
  5  0.021  0.014  0.004  0.008  0.000  0.000  0.000  0.000  0.000  0.046
  6  0.026  0.004  0.013  0.007  0.000  0.000  0.000  0.000  0.000  0.049
  7  0.041  0.006  0.008  0.004  0.000  0.000  0.000  0.000  0.000  0.060
  8  0.012  0.008  0.007  0.013  0.000  0.000  0.000  0.000  0.000  0.040
tot  0.199  0.064  0.064  0.063  0.000  0.000  0.000  0.000  0.000  0.391
 
band   8 # energy   -0.80825653 # occ.  2.00000000
 
ion      s     py     pz     px    dxy    dyz    dz2    dxz    dx2    tot
  1  0.025  0.008  0.008  0.008  0.000  0.000  0.000  0.000  0.000  0.049
  2  0.025  0.008  0.008  0.008  0.000  0.000  0.000  0.000  0.000  0.049
  3  0.025  0.008  0.008  0.008  0.000  0.000  0.000  0.000  0.000  0.049
  4  0.025  0.008  0.008  0.008  0.000  0.000  0.000  0.000  0.000  0.049
  5  0.025  0.008  0.008  0.008  0.000  0.000  0.000  0.000  0.000  0.049
  6  0.025  0.008  0.008  0.008  0.000  0.000  0.000  0.000  0.000  0.049
  7  0.025  0.008  0.008  0.008  0.000  0.000  0.000  0.000  0.000  0.049
  8  0.025  0.008  0.008  0.008  0.000  0.000  0.000  0.000  0.000  0.049
tot  0.203  0.064  0.064  0.064  0.000  0.000  0.000  0.000  0.000  0.395
 
band   9 # energy    4.46550546 # occ.  2.00000000
 
ion      s     py     pz     px    dxy    dyz    dz2    dxz    dx2    tot
  1  0.003  0.022  0.005  0.012  0.000  0.000  0.000  0.000  0.000  0.042
  2  0.005  0.027  0.015  0.012  0.000  0.000  0.000  0.000  0.000  0.058
  3  0.002  0.016  0.011  0.001  0.000  0.000  0.000  0.000  0.000  0.031
  4  0.007  0.026  0.029  0.026  0.000  0.000  0.000  0.000  0.000  0.088
  5  0.003  0.020  0.012  0.006  0.000  0.000  0.000  0.000  0.000  0.042
  6  0.005  0.015  0.021  0.018  0.000  0.000  0.000  0.000  0.000  0.058
  7  0.002  0.018  0.005  0.006  0.000  0.000  0.000  0.000  0.000  0.031
  8  0.007  0.038  0.021  0.022  0.000  0.000  0.000  0.000  0.000  0.088
tot  0.034  0.182  0.119  0.101  0.000  0.000  0.000  0.000  0.000  0.436
 
band  10 # energy    4.46550550 # occ.  2.00000000
 
ion      s     py     pz     px    dxy    dyz    dz2    dxz    dx2    tot
  1  0.007  0.016  0.040  0.021  0.000  0.000  0.000  0.000  0.000  0.084
  2  0.002  0.007  0.023  0.002  0.000  0.000  0.000  0.000  0.000  0.034
  3  0.005  0.018  0.029  0.014  0.000  0.000  0.000  0.000  0.000  0.066
  4  0.002  0.011  0.015  0.005  0.000  0.000  0.000  0.000  0.000  0.033
  5  0.007  0.025  0.033  0.020  0.000  0.000  0.000  0.000  0.000  0.084
  6  0.002  0.012  0.017  0.003  0.000  0.000  0.000  0.000  0.000  0.034
  7  0.005  0.010  0.034  0.017  0.000  0.000  0.000  0.000  0.000  0.066
  8  0.002  0.007  0.022  0.002  0.000  0.000  0.000  0.000  0.000  0.033
tot  0.034  0.105  0.214  0.084  0.000  0.000  0.000  0.000  0.000  0.436
 
band  11 # energy    4.46550550 # occ.  2.00000000
 
ion      s     py     pz     px    dxy    dyz    dz2    dxz    dx2    tot
  1  0.003  0.012  0.005  0.018  0.000  0.000  0.000  0.000  0.000  0.038
  2  0.006  0.016  0.013  0.037  0.000  0.000  0.000  0.000  0.000  0.071
  3  0.005  0.016  0.010  0.035  0.000  0.000  0.000  0.000  0.000  0.066
  4  0.003  0.013  0.007  0.019  0.000  0.000  0.000  0.000  0.000  0.043
  5  0.003  0.005  0.005  0.025  0.000  0.000  0.000  0.000  0.000  0.038
  6  0.006  0.024  0.012  0.030  0.000  0.000  0.000  0.000  0.000  0.071
  7  0.005  0.023  0.011  0.028  0.000  0.000  0.000  0.000  0.000  0.066
  8  0.003  0.006  0.007  0.027  0.000  0.000  0.000  0.000  0.000  0.043
tot  0.034  0.116  0.069  0.217  0.000  0.000  0.000  0.000  0.000  0.436
 
band  12 # energy    4.67435622 # occ.  2.00000000
 
ion      s     py     pz     px    dxy    dyz    dz2    dxz    dx2    tot
  1  0.000  0.000  0.029  0.028  0.000  0.000  0.000  0.000  0.000  0.056
  2  0.000  0.000  0.026  0.028  0.000  0.000  0.000  0.000  0.000  0.054
  3  0.000  0.000  0.026  0.027  0.000  0.000  0.000  0.000  0.000  0.054
  4  0.000  0.000  0.029  0.027  0.000  0.000  0.000  0.000  0.000  0.056
  5  0.000  0.000  0.029  0.028  0.000  0.000  0.000  0.000  0.000  0.056
  6  0.000  0.000  0.026  0.028  0.000  0.000  0.000  0.000  0.000  0.054
  7  0.000  0.000  0.026  0.027  0.000  0.000  0.000  0.000  0.000  0.054
  8  0.000  0.000  0.029  0.027  0.000  0.000  0.000  0.000  0.000  0.056
tot  0.000  0.000  0.219  0.220  0.000  0.000  0.000  0.000  0.000  0.439
 
band  13 # energy    4.67435622 # occ.  2.00000000
 
ion      s     py     pz     px    dxy    dyz    dz2    dxz    dx2    tot
  1  0.000  0.028  0.026  0.000  0.000  0.000  0.000  0.000  0.000  0.055
  2  0.000  0.026  0.029  0.000  0.000  0.000  0.000  0.000  0.000  0.055
  3  0.000  0.028  0.029  0.000  0.000  0.000  0.000  0.000  0.000  0.057
  4  0.000  0.026  0.026  0.000  0.000  0.000  0.000  0.000  0.000  0.053
  5  0.000  0.028  0.026  0.000  0.000  0.000  0.000  0.000  0.000  0.055
  6  0.000  0.026  0.029  0.000  0.000  0.000  0.000  0.000  0.000  0.055
  7  0.000  0.028  0.029  0.000  0.000  0.000  0.000  0.000  0.000  0.057
  8  0.000  0.026  0.026  0.000  0.000  0.000  0.000  0.000  0.000  0.053
tot  0.000  0.220  0.220  0.000  0.000  0.000  0.000  0.000  0.000  0.439
 
band  14 # energy    4.67435622 # occ.  2.00000000
 
ion      s     py     pz     px    dxy    dyz    dz2    dxz    dx2    tot
  1  0.000  0.026  0.000  0.027  0.000  0.000  0.000  0.000  0.000  0.054
  2  0.000  0.028  0.000  0.027  0.000  0.000  0.000  0.000  0.000  0.056
  3  0.000  0.026  0.000  0.028  0.000  0.000  0.000  0.000  0.000  0.054
  4  0.000  0.028  0.000  0.028  0.000  0.000  0.000  0.000  0.000  0.056
  5  0.000  0.026  0.000  0.027  0.000  0.000  0.000  0.000  0.000  0.054
  6  0.000  0.028  0.000  0.027  0.000  0.000  0.000  0.000  0.000  0.056
  7  0.000  0.026  0.000  0.028  0.000  0.000  0.000  0.000  0.000  0.054
  8  0.000  0.028  0.000  0.028  0.000  0.000  0.000  0.000  0.000  0.056
tot  0.000  0.219  0.000  0.220  0.000  0.000  0.000  0.000  0.000  0.439
 
band  15 # energy    4.78067290 # occ.  2.00000000
 
ion      s     py     pz     px    dxy    dyz    dz2    dxz    dx2    tot
  1  0.000  0.008  0.037  0.011  0.000  0.000  0.000  0.000  0.000  0.055
  2  0.000  0.008  0.037  0.011  0.000  0.000  0.000  0.000  0.000  0.055
  3  0.000  0.008  0.037  0.011  0.000  0.000  0.000  0.000  0.000  0.055
  4  0.000  0.008  0.037  0.011  0.000  0.000  0.000  0.000  0.000  0.055
  5  0.000  0.008  0.037  0.011  0.000  0.000  0.000  0.000  0.000  0.055
  6  0.000  0.008  0.037  0.011  0.000  0.000  0.000  0.000  0.000  0.055
  7  0.000  0.008  0.037  0.011  0.000  0.000  0.000  0.000  0.000  0.055
  8  0.000  0.008  0.037  0.011  0.000  0.000  0.000  0.000  0.000  0.055
tot  0.000  0.062  0.295  0.086  0.000  0.000  0.000  0.000  0.000  0.443
 
band  16 # energy    4.78067291 # occ.  2.00000000
 
ion      s     py     pz     px    dxy    dyz    dz2    dxz    dx2    tot
  1  0.000  0.029  0.000  0.026  0.000  0.000  0.000  0.000  0.000  0.055
  2  0.000  0.029  0.000  0.026  0.000  0.000  0.000  0.000  0.000  0.055
  3  0.000  0.029  0.000  0.026  0.000  0.000  0.000  0.000  0.000  0.055
  4  0.000  0.029  0.000  0.026  0.000  0.000  0.000  0.000  0.000  0.055
  5  0.000  0.029  0.000  0.026  0.000  0.000  0.000  0.000  0.000  0.055
  6  0.000  0.029  0.000  0.026  0.000  0.000  0.000  0.000  0.000  0.055
  7  0.000  0.029  0.000  0.026  0.000  0.000  0.000  0.000  0.000  0.055
  8  0.000  0.029  0.000  0.026  0.000  0.000  0.000  0.000  0.000  0.055
tot  0.000  0.233  0.001  0.209  0.000  0.000  0.000  0.000  0.000  0.443
 
band  17 # energy    7.54956725 # occ.  0.00000000
 
ion      s     py     pz     px    dxy    dyz    dz2    dxz    dx2    tot
  1  0.047  0.002  0.002  0.002  0.000  0.000  0.000  0.000  0.000  0.052
  2  0.047  0.002  0.002  0.002  0.000  0.000  0.000  0.000  0.000  0.052