<?xml version="1.0" encoding="ISO-8859-1"?>
<modeling>
 <generator>
  <i name="program" type="string">vasp</i>
  <i name="version" type="string">4.6.36 </i>
  <i name="subversion" type="string">17Feb09 complex  serial</i>
  <i name="platform" type="string">LinuxIFC</i>
  <i name="date" type="string">2009 10 23</i>
  <i name="time" type="string">04:17:18</i>
 </generator>
 <incar>
  <i type="string" name="SYSTEM"> diamond Si</i>
  <i type="int" name="ISTART">     0</i>
  <i type="string" name="PREC">medium</i>
  <i name="ENCUT">    240.00000000</i>
  <i type="int" name="ISMEAR">     0</i>
  <i name="SIGMA">      0.10000000</i>
  <i type="logical" name="LORBIT"> F  </i>
 </incar>
 <kpoints>
  <generation param="listgenerated">
   <i name="divisions" type="int">      10</i>
   <v>       0.50000000       0.50000000       0.50000000 </v>
   <v>       0.00000000       0.00000000       0.00000000 </v>
   <v>       0.00000000       0.50000000       0.50000000 </v>
   <v>       0.37500000       0.75000000       0.37500000 </v>
   <v>       0.00000000       0.00000000       0.00000000 </v>
  </generation>
  <varray name="kpointlist" >
   <v>       0.50000000       0.50000000       0.50000000 </v>
   <v>       0.44444444       0.44444444       0.44444444 </v>
   <v>       0.38888889       0.38888889       0.38888889 </v>
   <v>       0.33333333       0.33333333       0.33333333 </v>
   <v>       0.27777778       0.27777778       0.27777778 </v>
   <v>       0.22222222       0.22222222       0.22222222 </v>
   <v>       0.16666667       0.16666667       0.16666667 </v>
   <v>       0.11111111       0.11111111       0.11111111 </v>
   <v>       0.05555556       0.05555556       0.05555556 </v>
   <v>       0.00000000       0.00000000       0.00000000 </v>
   <v>       0.00000000       0.00000000       0.00000000 </v>
   <v>       0.00000000       0.05555556       0.05555556 </v>
   <v>       0.00000000       0.11111111       0.11111111 </v>
   <v>       0.00000000       0.16666667       0.16666667 </v>
   <v>       0.00000000       0.22222222       0.22222222 </v>
   <v>       0.00000000       0.27777778       0.27777778 </v>
   <v>       0.00000000       0.33333333       0.33333333 </v>
   <v>       0.00000000       0.38888889       0.38888889 </v>
   <v>       0.00000000       0.44444444       0.44444444 </v>
   <v>       0.00000000       0.50000000       0.50000000 </v>
   <v>       0.00000000       0.50000000       0.50000000 </v>
   <v>       0.02777778       0.51388889       0.51388889 </v>
   <v>       0.05555556       0.52777778       0.52777778 </v>
   <v>       0.08333333       0.54166667       0.54166667 </v>
   <v>       0.11111111       0.55555556       0.55555556 </v>
   <v>       0.13888889       0.56944444       0.56944444 </v>
   <v>       0.16666667       0.58333333       0.58333333 </v>
   <v>       0.19444444       0.59722222       0.59722222 </v>
   <v>       0.22222222       0.61111111       0.61111111 </v>
   <v>       0.25000000       0.62500000       0.62500000 </v>
   <v>       0.37500000       0.75000000       0.37500000 </v>
   <v>       0.33333333       0.66666667       0.33333333 </v>
   <v>       0.29166667       0.58333333       0.29166667 </v>
   <v>       0.25000000       0.50000000       0.25000000 </v>
   <v>       0.20833333       0.41666667       0.20833333 </v>
   <v>       0.16666667       0.33333333       0.16666667 </v>
   <v>       0.12500000       0.25000000       0.12500000 </v>
   <v>       0.08333333       0.16666667       0.08333333 </v>
   <v>       0.04166667       0.08333333       0.04166667 </v>
   <v>       0.00000000       0.00000000       0.00000000 </v>
  </varray>
  <varray name="weights" >
   <v>       0.02500000 </v>
   <v>       0.02500000 </v>
   <v>       0.02500000 </v>
   <v>       0.02500000 </v>
   <v>       0.02500000 </v>
   <v>       0.02500000 </v>
   <v>       0.02500000 </v>
   <v>       0.02500000 </v>
   <v>       0.02500000 </v>
   <v>       0.02500000 </v>
   <v>       0.02500000 </v>
   <v>       0.02500000 </v>
   <v>       0.02500000 </v>
   <v>       0.02500000 </v>
   <v>       0.02500000 </v>
   <v>       0.02500000 </v>
   <v>       0.02500000 </v>
   <v>       0.02500000 </v>
   <v>       0.02500000 </v>
   <v>       0.02500000 </v>
   <v>       0.02500000 </v>
   <v>       0.02500000 </v>
   <v>       0.02500000 </v>
   <v>       0.02500000 </v>
   <v>       0.02500000 </v>
   <v>       0.02500000 </v>
   <v>       0.02500000 </v>
   <v>       0.02500000 </v>
   <v>       0.02500000 </v>
   <v>       0.02500000 </v>
   <v>       0.02500000 </v>
   <v>       0.02500000 </v>
   <v>       0.02500000 </v>
   <v>       0.02500000 </v>
   <v>       0.02500000 </v>
   <v>       0.02500000 </v>
   <v>       0.02500000 </v>
   <v>       0.02500000 </v>
   <v>       0.02500000 </v>
   <v>       0.02500000 </v>
  </varray>
 </kpoints>
 <parameters>
  <separator name="general" >
   <i type="string" name="SYSTEM">diamond Si</i>
   <i type="logical" name="LCOMPAT"> F  </i>
  </separator>
  <separator name="electronic" >
   <i type="string" name="PREC">medium</i>
   <i name="ENMAX">    240.00000000</i>
   <i name="ENAUG">    322.06900000</i>
   <i name="EDIFF">      0.00010000</i>
   <i type="int" name="IALGO">    38</i>
   <i type="int" name="IWAVPR">     0</i>
   <i type="int" name="NBANDS">    21</i>
   <i name="NELECT">     32.00000000</i>
   <separator name="electronic smearing" >
    <i type="int" name="ISMEAR">     0</i>
    <i name="SIGMA">      0.10000000</i>
   </separator>
   <separator name="electronic projectors" >
    <i type="logical" name="LREAL"> F  </i>
    <v name="ROPT">      0.00000000</v>
    <i type="int" name="LMAXPAW">  -100</i>
    <i type="int" name="LMAXMIX">     2</i>
   </separator>
   <separator name="electronic startup" >
    <i type="int" name="ISTART">     0</i>
    <i type="int" name="ICHARG">     2</i>
    <i type="int" name="INIWAV">     1</i>
   </separator>
   <separator name="electronic spin" >
    <i type="int" name="ISPIN">     1</i>
    <i type="logical" name="LNONCOLLINEAR"> F  </i>
    <v name="MAGMOM">      1.00000000      1.00000000      1.00000000      1.00000000      1.00000000      1.00000000      1.00000000      1.00000000</v>
    <i name="NUPDOWN">     -1.00000000</i>
    <i type="logical" name="LSORBIT"> F  </i>
    <v name="SAXIS">      0.00000000      0.00000000      1.00000000</v>
    <i type="logical" name="LSPIRAL"> F  </i>
    <v name="QSPIRAL">      0.00000000      0.00000000      0.00000000</v>
    <i type="logical" name="LZEROZ"> F  </i>
   </separator>
   <separator name="electronic exchange-correlation" >
    <i type="string" name="GGA">--</i>
    <i type="int" name="VOSKOWN">     0</i>
    <i type="logical" name="LASPH"> F  </i>
    <i type="logical" name="LMETAGGA"> F  </i>
    <i type="string" name="GGA2">--</i>
   </separator>
   <separator name="electronic convergence" >
    <i type="int" name="NELM">    60</i>
    <i type="int" name="NELMDL">    -5</i>
    <i type="int" name="NELMIN">     2</i>
    <i name="ENINI">    240.00000000</i>
    <separator name="electronic convergence detail" >
     <i type="logical" name="LDIAG"> T  </i>
     <i name="WEIMIN">      0.00000000</i>
     <i name="EBREAK">      0.00000119</i>
     <i name="DEPER">      0.30000000</i>
     <i type="int" name="NRMM">     4</i>
     <i name="TIME">      0.10000000</i>
    </separator>
   </separator>
   <separator name="electronic mixer" >
    <i name="AMIX">      0.40000000</i>
    <i name="BMIX">      1.00000000</i>
    <i name="AMIN">      0.10000000</i>
    <i name="AMIX_MAG">      1.60000000</i>
    <i name="BMIX_MAG">      1.00000000</i>
    <separator name="electronic mixer details" >
     <i type="int" name="IMIX">     4</i>
     <i type="int" name="MAXMIX">   -45</i>
     <i name="WC">    100.00000000</i>
     <i type="int" name="INIMIX">     1</i>
     <i type="int" name="MIXPRE">     1</i>
     <i type="int" name="MREMOVE">     5</i>
    </separator>
   </separator>
   <separator name="electronic dipolcorrection" >
    <i type="int" name="IDIPOL">     0</i>
    <i type="logical" name="LDIPOL"> F  </i>
    <v name="DIPOL">   -100.00000000</v>
    <i name="EFIELD">      0.00000000</i>
   </separator>
  </separator>
  <separator name="grids" >
   <i type="int" name="NGX">    24</i>
   <i type="int" name="NGY">    24</i>
   <i type="int" name="NGZ">    24</i>
   <i type="int" name="NGXF">    32</i>
   <i type="int" name="NGYF">    32</i>
   <i type="int" name="NGZF">    32</i>
   <i type="logical" name="ADDGRID"> F  </i>
  </separator>
  <separator name="ionic" >
   <i type="int" name="NSW">     0</i>
   <i type="int" name="IBRION">    -1</i>
   <i type="int" name="ISIF">     2</i>
   <i name="PSTRESS">      0.00000000</i>
   <i name="EDIFFG">      0.00100000</i>
   <i type="int" name="NFREE">     0</i>
   <i name="POTIM">      0.50000000</i>
   <i name="SMASS">     -3.00000000</i>
  </separator>
  <separator name="ionic md" >
   <i name="TEBEG">      0.00010000</i>
   <i name="TEEND">      0.00010000</i>
   <i type="int" name="NBLOCK">     1</i>
   <i type="int" name="KBLOCK">     1</i>
   <i type="int" name="NPACO">   256</i>
   <i name="APACO">     16.00000000</i>
  </separator>
  <separator name="symmetry" >
   <i type="int" name="ISYM">     2</i>
   <i name="SYMPREC">      0.00001000</i>
  </separator>
  <separator name="dos" >
   <i type="logical" name="LORBIT"> F  </i>
   <v name="RWIGS">     -1.00000000</v>
   <i type="int" name="NEDOS">   301</i>
   <i name="EMIN">     10.00000000</i>
   <i name="EMAX">    -10.00000000</i>
  </separator>
  <separator name="writing" >
   <i type="int" name="NWRITE">     2</i>
   <i type="logical" name="LWAVE"> T  </i>
   <i type="logical" name="LCHARG"> T  </i>
   <i type="logical" name="LPARD"> F  </i>
   <i type="logical" name="LVTOT"> F  </i>
   <i type="logical" name="LELF"> F  </i>
   <i type="logical" name="LOPTICS"> F  </i>
   <v name="STM">      0.00000000      0.00000000      0.00000000      0.00000000      0.00000000</v>
  </separator>
  <separator name="performance" >
   <i type="int" name="NPAR">     1</i>
   <i type="int" name="NSIM">     4</i>
   <i type="int" name="NBLK">   128</i>
   <i type="logical" name="LPLANE"> T  </i>
   <i type="logical" name="LCRITICAL_MEM"> F  </i>
   <i type="logical" name="LSCALAPACK"> F  </i>
   <i type="logical" name="LSCALU"> F  </i>
   <i type="logical" name="LASYNC"> F  </i>
  </separator>
  <separator name="miscellaneous" >
   <i type="int" name="IDIOT">     3</i>
   <i type="logical" name="LMUSIC"> F  </i>
   <v name="POMASS">     28.08500000</v>
   <i type="logical" name="LCORR"> T  </i>
  </separator>
  <i type="logical" name="LREAL_COMPAT"> F  </i>
  <i type="logical" name="GGA_COMPAT"> T  </i>
  <i type="logical" name="LBERRY"> F  </i>
  <i type="int" name="ICORELEVEL">     0</i>
  <i type="logical" name="LDAU"> F  </i>
  <i type="int" name="I_CONSTRAINED_M">     0</i>
 </parameters>
 <atominfo>
  <atoms>       8</atoms>
  <types>       1</types>
  <array name="atoms" >
   <dimension dim="1">ion</dimension>
   <field type="string">element</field>
   <field type="int">atomtype</field>
   <set>
    <rc><c>Si</c><c>   1</c></rc>
    <rc><c>Si</c><c>   1</c></rc>
    <rc><c>Si</c><c>   1</c></rc>
    <rc><c>Si</c><c>   1</c></rc>
    <rc><c>Si</c><c>   1</c></rc>
    <rc><c>Si</c><c>   1</c></rc>
    <rc><c>Si</c><c>   1</c></rc>
    <rc><c>Si</c><c>   1</c></rc>
   </set>
  </array>
  <array name="atomtypes" >
   <dimension dim="1">type</dimension>
   <field type="int">atomspertype</field>
   <field type="string">element</field>
   <field>mass</field>
   <field>valence</field>
   <field type="string">pseudopotential</field>
   <set>
    <rc><c>   8</c><c>Si</c><c>     28.08500000</c><c>      4.00000000</c><c> PAW_PBE Si 05Jan2001                   </c></rc>
   </set>
  </array>
 </atominfo>
 <structure name="initialpos" >
  <crystal>
   <varray name="basis" >
    <v>       5.42000000       0.00000000       0.00000000 </v>
    <v>       0.00000000       5.42000000       0.00000000 </v>
    <v>       0.00000000       0.00000000       5.42000000 </v>
   </varray>
   <i name="volume">    159.22008800</i>
   <varray name="rec_basis" >
    <v>       0.18450185       0.00000000       0.00000000 </v>
    <v>       0.00000000       0.18450185       0.00000000 </v>
    <v>       0.00000000       0.00000000       0.18450185 </v>
   </varray>
  </crystal>
  <varray name="positions" >
   <v>       0.00000000       0.00000000       0.00000000 </v>
   <v>       0.00000000       0.50000000       0.50000000 </v>
   <v>       0.50000000       0.00000000       0.50000000 </v>
   <v>       0.50000000       0.50000000       0.00000000 </v>
   <v>       0.25000000       0.25000000       0.25000000 </v>
   <v>       0.25000000       0.75000000       0.75000000 </v>
   <v>       0.75000000       0.25000000       0.75000000 </v>
   <v>       0.75000000       0.75000000       0.25000000 </v>
  </varray>
 </structure>
 <calculation>
  <scstep>
   <time name="dav">   21.10   21.11</time>
   <time name="total">   21.27   21.28</time>
   <energy>
    <i name="alphaZ">     13.53118846</i>
    <i name="ewald">   -915.94094829</i>
    <i name="hartreedc">    -43.67299867</i>
    <i name="XCdc">    -74.31651317</i>
    <i name="pawpsdc">    263.82083246</i>
    <i name="pawaedc">   -123.07410713</i>
    <i name="eentropy">     -0.00620271</i>
    <i name="bandstr">     96.04744613</i>
    <i name="atom">    824.48621262</i>
    <i name="e_fr_energy">     40.87490971</i>
    <i name="e_wo_entrp">     40.88111242</i>
    <i name="e_0_energy">     40.87801107</i>
   </energy>
  </scstep>
  <scstep>
   <time name="dav">   26.84   26.84</time>
   <time name="total">   26.87   26.88</time>
   <energy>
    <i name="e_fr_energy">    -38.04373484</i>
    <i name="e_wo_entrp">    -38.03853825</i>
    <i name="e_0_energy">    -38.04113655</i>
   </energy>
  </scstep>
  <scstep>
   <time name="dav">   25.87   25.88</time>
   <time name="total">   25.89   25.90</time>
   <energy>
    <i name="e_fr_energy">    -41.64340808</i>
    <i name="e_wo_entrp">    -41.64340808</i>
    <i name="e_0_energy">    -41.64340808</i>
   </energy>
  </scstep>
  <scstep>
   <time name="dav">   24.75   24.76</time>
   <time name="total">   24.77   24.78</time>
   <energy>
    <i name="e_fr_energy">    -41.72114416</i>
    <i name="e_wo_entrp">    -41.72114416</i>
    <i name="e_0_energy">    -41.72114416</i>
   </energy>
  </scstep>
  <scstep>
   <time name="dav">   25.03   25.04</time>
   <time name="total">   26.52   26.53</time>
   <energy>
    <i name="e_fr_energy">    -41.72302829</i>
    <i name="e_wo_entrp">    -41.72302829</i>
    <i name="e_0_energy">    -41.72302829</i>
   </energy>
  </scstep>
  <scstep>
   <time name="dav">   23.10   23.11</time>
   <time name="total">   24.79   24.80</time>
   <energy>
    <i name="e_fr_energy">    -41.09366798</i>
    <i name="e_wo_entrp">    -41.09366798</i>
    <i name="e_0_energy">    -41.09366798</i>
   </energy>
  </scstep>
  <scstep>
   <time name="dav">   22.66   22.66</time>
   <time name="total">   24.37   24.37</time>
   <energy>
    <i name="e_fr_energy">    -40.81002747</i>
    <i name="e_wo_entrp">    -40.81002559</i>
    <i name="e_0_energy">    -40.81002653</i>
   </energy>
  </scstep>
  <scstep>
   <time name="dav">   23.70   23.70</time>
   <time name="total">   25.42   25.42</time>
   <energy>
    <i name="e_fr_energy">    -40.81937473</i>
    <i name="e_wo_entrp">    -40.81937408</i>
    <i name="e_0_energy">    -40.81937441</i>
   </energy>
  </scstep>
  <scstep>
   <time name="dav">   24.66   24.66</time>
   <time name="total">   26.37   26.37</time>
   <energy>
    <i name="e_fr_energy">    -40.81991532</i>
    <i name="e_wo_entrp">    -40.81991463</i>
    <i name="e_0_energy">    -40.81991497</i>
   </energy>
  </scstep>
  <scstep>
   <time name="dav">   21.81   21.82</time>
   <time name="total">   23.50   23.50</time>
   <energy>
    <i name="e_fr_energy">    -40.82008478</i>
    <i name="e_wo_entrp">    -40.82008417</i>
    <i name="e_0_energy">    -40.82008447</i>
   </energy>
  </scstep>
  <scstep>
   <time name="dav">   16.68   16.68</time>
   <time name="total">   16.85   16.85</time>
   <energy>
    <i name="alphaZ">     13.53118846</i>
    <i name="ewald">   -915.94094829</i>
    <i name="hartreedc">    -61.60706113</i>
    <i name="XCdc">    -71.43599570</i>
    <i name="pawpsdc">    302.63081478</i>
    <i name="pawaedc">   -162.89199489</i>
    <i name="eentropy">     -0.00000062</i>
    <i name="bandstr">     30.40769813</i>
    <i name="atom">    824.48621262</i>
    <i name="e_fr_energy">    -40.82008664</i>
    <i name="e_wo_entrp">    -40.82008602</i>
    <i name="e_0_energy">    -40.82008633</i>
   </energy>
  </scstep>
  <structure>
   <crystal>
    <varray name="basis" >
     <v>       5.42000000       0.00000000       0.00000000 </v>
     <v>       0.00000000       5.42000000       0.00000000 </v>
     <v>       0.00000000       0.00000000       5.42000000 </v>
    </varray>
    <i name="volume">    159.22008800</i>
    <varray name="rec_basis" >
     <v>       0.18450185       0.00000000       0.00000000 </v>
     <v>       0.00000000       0.18450185       0.00000000 </v>
     <v>       0.00000000       0.00000000       0.18450185 </v>
    </varray>
   </crystal>
   <varray name="positions" >
    <v>       0.00000000       0.00000000       0.00000000 </v>
    <v>       0.00000000       0.50000000       0.50000000 </v>
    <v>       0.50000000       0.00000000       0.50000000 </v>
    <v>       0.50000000       0.50000000       0.00000000 </v>
    <v>       0.25000000       0.25000000       0.25000000 </v>
    <v>       0.25000000       0.75000000       0.75000000 </v>
    <v>       0.75000000       0.25000000       0.75000000 </v>
    <v>       0.75000000       0.75000000       0.25000000 </v>
   </varray>
  </structure>
  <varray name="forces" >
   <v>       0.00000000       0.00000000       0.00000000 </v>
   <v>       0.00000000       0.00000000       0.00000000 </v>
   <v>       0.00000000       0.00000000       0.00000000 </v>
   <v>       0.00000000       0.00000000       0.00000000 </v>
   <v>       0.00000000       0.00000000       0.00000000 </v>
   <v>       0.00000000       0.00000000       0.00000000 </v>
   <v>       0.00000000       0.00000000       0.00000000 </v>
   <v>       0.00000000       0.00000000       0.00000000 </v>
  </varray>
  <varray name="stress" >
   <v>      43.74856451       0.00000000       0.00000000 </v>
   <v>       0.00000000      43.74856451       0.00000000 </v>
   <v>       0.00000000       0.00000000      43.74856451 </v>
  </varray>
  <energy>
   <i name="e_fr_energy">    -40.82008664</i>
   <i name="e_wo_entrp">    -40.82008633</i>
   <i name="e_0_energy">     -0.00000062</i>
  </energy>
  <eigenvalues>
   <array>
    <dimension dim="1">band</dimension>
    <dimension dim="2">kpoint</dimension>
    <dimension dim="3">spin</dimension>
    <field>eigene</field>
    <field>occ</field>
    <set>
     <set comment="spin 1">
      <set comment="kpoint 1">
       <r>  -3.6992  1.0000</r>
       <r>  -3.6992  1.0000</r>
       <r>  -3.6992  1.0000</r>
       <r>  -3.6992  1.0000</r>
       <r>  -1.0506  1.0000</r>
       <r>  -1.0506  1.0000</r>
       <r>  -1.0506  1.0000</r>
       <r>  -1.0506  1.0000</r>
       <r>   4.7583  1.0000</r>
       <r>   4.7583  1.0000</r>
       <r>   4.7583  1.0000</r>
       <r>   4.7583  1.0000</r>
       <r>   4.7583  1.0000</r>
       <r>   4.7583  1.0000</r>
       <r>   4.7583  1.0000</r>
       <r>   4.7583  1.0000</r>
       <r>   7.5221  0.0000</r>
       <r>   7.5221  0.0000</r>
       <r>   7.5221  0.0000</r>
       <r>   7.5221  0.0000</r>
       <r>   9.2876  0.0000</r>
      </set>
      <set comment="kpoint 2">
       <r>  -3.8647  1.0000</r>
       <r>  -3.6829  1.0000</r>
       <r>  -3.6829  1.0000</r>
       <r>  -3.6829  1.0000</r>
       <r>  -1.0028  1.0000</r>
       <r>  -1.0028  1.0000</r>
       <r>  -1.0028  1.0000</r>
       <r>  -0.8083  1.0000</r>
       <r>   4.4655  1.0000</r>
       <r>   4.4655  1.0000</r>
       <r>   4.4655  1.0000</r>
       <r>   4.6744  1.0000</r>
       <r>   4.6744  1.0000</r>
       <r>   4.6744  1.0000</r>
       <r>   4.7807  1.0000</r>
       <r>   4.7807  1.0000</r>
       <r>   7.5496  0.0000</r>
       <r>   7.8047  0.0000</r>
       <r>   7.8047  0.0000</r>
       <r>   7.8047  0.0000</r>
       <r>   9.2272  0.0000</r>
      </set>
      <set comment="kpoint 3">
       <r>  -4.2398  1.0000</r>
       <r>  -3.6318  1.0000</r>
       <r>  -3.6318  1.0000</r>
       <r>  -3.6318  1.0000</r>
       <r>  -0.8682  1.0000</r>
       <r>  -0.8682  1.0000</r>
       <r>  -0.8682  1.0000</r>
       <r>  -0.2032  1.0000</r>
       <r>   3.8394  1.0000</r>
       <r>   3.8394  1.0000</r>
       <r>   3.8394  1.0000</r>
       <r>   4.4563  1.0000</r>
       <r>   4.4563  1.0000</r>
       <r>   4.4563  1.0000</r>
       <r>   4.8475  1.0000</r>
       <r>   4.8475  1.0000</r>
       <r>   7.6247  0.0000</r>
       <r>   8.1603  0.0000</r>
       <r>   8.1603  0.0000</r>
       <r>   8.1603  0.0000</r>
       <r>   9.3501  0.0000</r>
      </set>
      <set comment="kpoint 4">
       <r>  -4.6653  1.0000</r>
       <r>  -3.5403  1.0000</r>
       <r>  -3.5403  1.0000</r>
       <r>  -3.5403  1.0000</r>
       <r>  -0.6766  1.0000</r>
       <r>  -0.6766  1.0000</r>
       <r>  -0.6766  1.0000</r>
       <r>   0.6012  1.0000</r>
       <r>   3.1657  1.0000</r>
       <r>   3.1657  1.0000</r>
       <r>   3.1657  1.0000</r>
       <r>   4.1717  1.0000</r>
       <r>   4.1717  1.0000</r>
       <r>   4.1717  1.0000</r>
       <r>   4.9575  1.0000</r>
       <r>   4.9575  1.0000</r>
       <r>   7.7480  0.0000</r>
       <r>   7.9960  0.0000</r>
       <r>   7.9960  0.0000</r>
       <r>   7.9960  0.0000</r>
       <r>   9.4612  0.0000</r>
      </set>
      <set comment="kpoint 5">
       <r>  -5.0662  1.0000</r>
       <r>  -3.4017  1.0000</r>
       <r>  -3.4017  1.0000</r>
       <r>  -3.4017  1.0000</r>
       <r>  -0.4943  1.0000</r>
       <r>  -0.4943  1.0000</r>
       <r>  -0.4943  1.0000</r>
       <r>   1.5253  1.0000</r>
       <r>   2.5966  1.0000</r>
       <r>   2.5966  1.0000</r>
       <r>   2.5966  1.0000</r>
       <r>   3.8766  1.0000</r>
       <r>   3.8766  1.0000</r>
       <r>   3.8766  1.0000</r>
       <r>   5.1104  1.0000</r>
       <r>   5.1104  1.0000</r>
       <r>   7.6431  0.0000</r>
       <r>   7.6431  0.0000</r>
       <r>   7.6431  0.0000</r>
       <r>   7.9151  0.0000</r>
       <r>   9.4923  0.0000</r>
      </set>
      <set comment="kpoint 6">
       <r>  -5.4118  1.0000</r>
       <r>  -3.2102  1.0000</r>
       <r>  -3.2102  1.0000</r>
       <r>  -3.2102  1.0000</r>
       <r>  -0.4390  1.0000</r>
       <r>  -0.4390  1.0000</r>
       <r>  -0.4390  1.0000</r>
       <r>   2.2716  1.0000</r>
       <r>   2.2716  1.0000</r>
       <r>   2.2716  1.0000</r>
       <r>   2.5280  1.0000</r>
       <r>   3.6071  1.0000</r>
       <r>   3.6071  1.0000</r>
       <r>   3.6071  1.0000</r>
       <r>   5.3006  1.0000</r>
       <r>   5.3006  1.0000</r>
       <r>   7.2945  0.0000</r>
       <r>   7.2945  0.0000</r>
       <r>   7.2945  0.0000</r>
       <r>   8.1165  0.0000</r>
       <r>   9.4015  0.0000</r>
      </set>
      <set comment="kpoint 7">
       <r>  -5.6886  1.0000</r>
       <r>  -2.9616  1.0000</r>
       <r>  -2.9616  1.0000</r>
       <r>  -2.9616  1.0000</r>
       <r>  -0.6179  1.0000</r>
       <r>  -0.6179  1.0000</r>
       <r>  -0.6179  1.0000</r>
       <r>   2.2907  1.0000</r>
       <r>   2.2907  1.0000</r>
       <r>   2.2907  1.0000</r>
       <r>   3.3840  1.0000</r>
       <r>   3.3840  1.0000</r>
       <r>   3.3840  1.0000</r>
       <r>   3.5767  1.0000</r>
       <r>   5.5152  1.0000</r>
       <r>   5.5152  1.0000</r>
       <r>   7.0024  0.0000</r>
       <r>   7.0024  0.0000</r>
       <r>   7.0024  0.0000</r>
       <r>   8.3297  0.0000</r>
       <r>   8.6711  0.0000</r>
      </set>
      <set comment="kpoint 8">
       <r>  -5.8896  1.0000</r>
       <r>  -2.6547  1.0000</r>
       <r>  -2.6547  1.0000</r>
       <r>  -2.6547  1.0000</r>
       <r>  -0.9873  1.0000</r>
       <r>  -0.9873  1.0000</r>
       <r>  -0.9873  1.0000</r>
       <r>   2.5753  1.0000</r>
       <r>   2.5753  1.0000</r>
       <r>   2.5753  1.0000</r>
       <r>   3.2183  1.0000</r>
       <r>   3.2183  1.0000</r>
       <r>   3.2183  1.0000</r>
       <r>   4.6205  1.0000</r>
       <r>   5.7326  1.0000</r>
       <r>   5.7326  1.0000</r>
       <r>   6.7871  0.0000</r>
       <r>   6.7871  0.0000</r>
       <r>   6.7871  0.0000</r>
       <r>   7.6892  0.0000</r>
       <r>   7.6892  0.0000</r>
      </set>
      <set comment="kpoint 9">
       <r>  -6.0114  1.0000</r>
       <r>  -2.2914  1.0000</r>
       <r>  -2.2914  1.0000</r>
       <r>  -2.2914  1.0000</r>
       <r>  -1.4323  1.0000</r>
       <r>  -1.4323  1.0000</r>
       <r>  -1.4323  1.0000</r>
       <r>   2.9202  1.0000</r>
       <r>   2.9202  1.0000</r>
       <r>   2.9202  1.0000</r>
       <r>   3.1169  1.0000</r>
       <r>   3.1169  1.0000</r>
       <r>   3.1169  1.0000</r>
       <r>   5.5394  1.0000</r>
       <r>   5.9062  1.0000</r>
       <r>   5.9062  1.0000</r>
       <r>   6.6569  0.0000</r>
       <r>   6.6569  0.0000</r>
       <r>   6.6569  0.0000</r>
       <r>   6.9628  0.0000</r>
       <r>   6.9628  0.0000</r>
      </set>
      <set comment="kpoint 10">
       <r>  -6.0521  1.0000</r>
       <r>  -1.8788  1.0000</r>
       <r>  -1.8788  1.0000</r>
       <r>  -1.8788  1.0000</r>
       <r>  -1.8788  1.0000</r>
       <r>  -1.8788  1.0000</r>
       <r>  -1.8788  1.0000</r>
       <r>   3.0827  1.0000</r>
       <r>   3.0827  1.0000</r>
       <r>   3.0827  1.0000</r>
       <r>   3.0827  1.0000</r>
       <r>   3.0827  1.0000</r>
       <r>   3.0827  1.0000</r>
       <r>   5.9755  1.0000</r>
       <r>   5.9755  1.0000</r>
       <r>   5.9755  1.0000</r>
       <r>   6.6458  0.0000</r>
       <r>   6.6458  0.0000</r>
       <r>   6.6458  0.0000</r>
       <r>   6.6458  0.0000</r>
       <r>   6.6458  0.0000</r>
      </set>
      <set comment="kpoint 11">
       <r>  -6.0521  1.0000</r>
       <r>  -1.8788  1.0000</r>
       <r>  -1.8788  1.0000</r>
       <r>  -1.8788  1.0000</r>
       <r>  -1.8788  1.0000</r>
       <r>  -1.8788  1.0000</r>
       <r>  -1.8788  1.0000</r>
       <r>   3.0827  1.0000</r>
       <r>   3.0827  1.0000</r>
       <r>   3.0827  1.0000</r>
       <r>   3.0827  1.0000</r>
       <r>   3.0827  1.0000</r>
       <r>   3.0827  1.0000</r>
       <r>   5.9755  1.0000</r>
       <r>   5.9755  1.0000</r>
       <r>   5.9755  1.0000</r>
       <r>   6.6458  0.0000</r>
       <r>   6.6458  0.0000</r>
       <r>   6.6458  0.0000</r>
       <r>   6.6458  0.0000</r>
       <r>   6.6458  0.0000</r>
      </set>
      <set comment="kpoint 12">
       <r>  -6.0249  1.0000</r>
       <r>  -2.2971  1.0000</r>
       <r>  -2.2971  1.0000</r>
       <r>  -1.8900  1.0000</r>
       <r>  -1.8495  1.0000</r>
       <r>  -1.4352  1.0000</r>
       <r>  -1.4352  1.0000</r>
       <r>   2.9066  1.0000</r>
       <r>   3.0499  1.0000</r>
       <r>   3.0499  1.0000</r>
       <r>   3.0581  1.0000</r>
       <r>   3.0581  1.0000</r>
       <r>   3.1046  1.0000</r>
       <r>   5.7069  1.0000</r>
       <r>   5.8570  1.0000</r>
       <r>   5.9634  1.0000</r>
       <r>   6.6430  0.0000</r>
       <r>   6.6430  0.0000</r>
       <r>   6.6710  0.0000</r>
       <r>   6.8363  0.0000</r>
       <r>   6.8364  0.0000</r>
      </set>
      <set comment="kpoint 13">
       <r>  -5.9436  1.0000</r>
       <r>  -2.6797  1.0000</r>
       <r>  -2.6797  1.0000</r>
       <r>  -1.9299  1.0000</r>
       <r>  -1.7613  1.0000</r>
       <r>  -0.9832  1.0000</r>
       <r>  -0.9832  1.0000</r>
       <r>   2.5062  1.0000</r>
       <r>   2.9517  1.0000</r>
       <r>   2.9517  1.0000</r>
       <r>   3.0144  1.0000</r>
       <r>   3.0144  1.0000</r>
       <r>   3.1699  1.0000</r>
       <r>   5.0974  1.0000</r>
       <r>   5.5381  1.0000</r>
       <r>   5.9254  1.0000</r>
       <r>   6.7464  0.0000</r>
       <r>   6.8257  0.0000</r>
       <r>   6.8257  0.0000</r>
       <r>   7.1915  0.0000</r>
       <r>   7.1916  0.0000</r>
      </set>
      <set comment="kpoint 14">
       <r>  -5.8086  1.0000</r>
       <r>  -3.0197  1.0000</r>
       <r>  -3.0197  1.0000</r>
       <r>  -2.0176  1.0000</r>
       <r>  -1.6147  1.0000</r>
       <r>  -0.5494  1.0000</r>
       <r>  -0.5494  1.0000</r>
       <r>   2.0738  1.0000</r>
       <r>   2.8072  1.0000</r>
       <r>   2.8072  1.0000</r>
       <r>   3.0049  1.0000</r>
       <r>   3.0049  1.0000</r>
       <r>   3.2776  1.0000</r>
       <r>   4.3778  1.0000</r>
       <r>   5.0929  1.0000</r>
       <r>   5.8561  1.0000</r>
       <r>   6.8711  0.0000</r>
       <r>   7.1666  0.0000</r>
       <r>   7.1666  0.0000</r>
       <r>   7.6781  0.0000</r>
       <r>   7.6781  0.0000</r>
      </set>
      <set comment="kpoint 15">
       <r>  -5.6212  1.0000</r>
       <r>  -3.3125  1.0000</r>
       <r>  -3.3125  1.0000</r>
       <r>  -2.1773  1.0000</r>
       <r>  -1.4098  1.0000</r>
       <r>  -0.1696  1.0000</r>
       <r>  -0.1696  1.0000</r>
       <r>   1.7300  1.0000</r>
       <r>   2.6450  1.0000</r>
       <r>   2.6450  1.0000</r>
       <r>   3.0850  1.0000</r>
       <r>   3.0850  1.0000</r>
       <r>   3.4259  1.0000</r>
       <r>   3.6409  1.0000</r>
       <r>   4.5821  1.0000</r>
       <r>   5.7488  1.0000</r>
       <r>   7.0425  0.0000</r>
       <r>   7.6309  0.0000</r>
       <r>   7.6309  0.0000</r>
       <r>   8.2692  0.0000</r>
       <r>   8.2692  0.0000</r>
      </set>
      <set comment="kpoint 16">
       <r>  -5.3828  1.0000</r>
       <r>  -3.5553  1.0000</r>
       <r>  -3.5553  1.0000</r>
       <r>  -2.4267  1.0000</r>
       <r>  -1.1472  1.0000</r>
       <r>   0.1209  1.0000</r>
       <r>   0.1209  1.0000</r>
       <r>   1.5339  1.0000</r>
       <r>   2.4888  1.0000</r>
       <r>   2.4888  1.0000</r>
       <r>   2.9234  1.0000</r>
       <r>   3.2968  1.0000</r>
       <r>   3.2968  1.0000</r>
       <r>   3.6117  1.0000</r>
       <r>   4.0499  1.0000</r>
       <r>   5.5970  1.0000</r>
       <r>   7.2577  0.0000</r>
       <r>   8.1885  0.0000</r>
       <r>   8.1885  0.0000</r>
       <r>   8.9442  0.0000</r>
       <r>   8.9515  0.0000</r>
      </set>
      <set comment="kpoint 17">
       <r>  -5.0961  1.0000</r>
       <r>  -3.7458  1.0000</r>
       <r>  -3.7458  1.0000</r>
       <r>  -2.7612  1.0000</r>
       <r>  -0.8275  1.0000</r>
       <r>   0.3087  1.0000</r>
       <r>   0.3087  1.0000</r>
       <r>   1.5001  1.0000</r>
       <r>   2.2410  1.0000</r>
       <r>   2.3553  1.0000</r>
       <r>   2.3553  1.0000</r>
       <r>   3.5242  1.0000</r>
       <r>   3.6438  1.0000</r>
       <r>   3.6438  1.0000</r>
       <r>   3.8309  1.0000</r>
       <r>   5.4016  1.0000</r>
       <r>   7.5109  0.0000</r>
       <r>   8.8151  0.0000</r>
       <r>   8.8151  0.0000</r>
       <r>   9.0186  0.0000</r>
       <r>   9.5174  0.0000</r>
      </set>
      <set comment="kpoint 18">
       <r>  -4.7650  1.0000</r>
       <r>  -3.8829  1.0000</r>
       <r>  -3.8829  1.0000</r>
       <r>  -3.1537  1.0000</r>
       <r>  -0.4506  1.0000</r>
       <r>   0.4101  1.0000</r>
       <r>   0.4101  1.0000</r>
       <r>   1.6004  1.0000</r>
       <r>   1.6131  1.0000</r>
       <r>   2.2536  1.0000</r>
       <r>   2.2536  1.0000</r>
       <r>   3.0245  1.0000</r>
       <r>   4.0706  1.0000</r>
       <r>   4.0706  1.0000</r>
       <r>   4.0786  1.0000</r>
       <r>   5.1667  1.0000</r>
       <r>   7.7963  0.0000</r>
       <r>   8.8987  0.0000</r>
       <r>   9.2980  0.0000</r>
       <r>   9.2985  0.0000</r>
       <r>   9.4893  0.0000</r>
      </set>
      <set comment="kpoint 19">
       <r>  -4.3944  1.0000</r>
       <r>  -3.9655  1.0000</r>
       <r>  -3.9655  1.0000</r>
       <r>  -3.5732  1.0000</r>
       <r>  -0.0182  1.0000</r>
       <r>   0.4560  1.0000</r>
       <r>   0.4560  1.0000</r>
       <r>   1.0092  1.0000</r>
       <r>   1.8444  1.0000</r>
       <r>   2.1906  1.0000</r>
       <r>   2.1906  1.0000</r>
       <r>   2.5684  1.0000</r>
       <r>   4.3472  1.0000</r>
       <r>   4.4587  1.0000</r>
       <r>   4.4587  1.0000</r>
       <r>   4.9040  1.0000</r>
       <r>   8.1014  0.0000</r>
       <r>   8.6569  0.0000</r>
       <r>   8.6569  0.0000</r>
       <r>   8.6850  0.0000</r>
       <r>  10.1929  0.0000</r>
      </set>
      <set comment="kpoint 20">
       <r>  -3.9932  1.0000</r>
       <r>  -3.9932  1.0000</r>
       <r>  -3.9932  1.0000</r>
       <r>  -3.9932  1.0000</r>
       <r>   0.4687  1.0000</r>
       <r>   0.4687  1.0000</r>
       <r>   0.4687  1.0000</r>
       <r>   0.4687  1.0000</r>
       <r>   2.1692  1.0000</r>
       <r>   2.1692  1.0000</r>
       <r>   2.1692  1.0000</r>
       <r>   2.1692  1.0000</r>
       <r>   4.6258  1.0000</r>
       <r>   4.6258  1.0000</r>
       <r>   4.6258  1.0000</r>
       <r>   4.6258  1.0000</r>
       <r>   8.4069  0.0000</r>
       <r>   8.4069  0.0000</r>
       <r>   8.4069  0.0000</r>
       <r>   8.4069  0.0000</r>
       <r>  10.7548  0.0000</r>
      </set>
      <set comment="kpoint 21">
       <r>  -3.9932  1.0000</r>
       <r>  -3.9932  1.0000</r>
       <r>  -3.9932  1.0000</r>
       <r>  -3.9932  1.0000</r>
       <r>   0.4687  1.0000</r>
       <r>   0.4687  1.0000</r>
       <r>   0.4687  1.0000</r>
       <r>   0.4687  1.0000</r>
       <r>   2.1692  1.0000</r>
       <r>   2.1692  1.0000</r>
       <r>   2.1692  1.0000</r>
       <r>   2.1692  1.0000</r>
       <r>   4.6258  1.0000</r>
       <r>   4.6258  1.0000</r>
       <r>   4.6258  1.0000</r>
       <r>   4.6258  1.0000</r>
       <r>   8.4069  0.0000</r>
       <r>   8.4069  0.0000</r>
       <r>   8.4069  0.0000</r>
       <r>   8.4069  0.0000</r>
       <r>  10.7550  0.0000</r>
      </set>
      <set comment="kpoint 22">
       <r>  -4.0938  1.0000</r>
       <r>  -3.9896  1.0000</r>
       <r>  -3.9896  1.0000</r>
       <r>  -3.8877  1.0000</r>
       <r>   0.3210  1.0000</r>
       <r>   0.4461  1.0000</r>
       <r>   0.4461  1.0000</r>
       <r>   0.5760  1.0000</r>
       <r>   2.1067  1.0000</r>
       <r>   2.1975  1.0000</r>
       <r>   2.1975  1.0000</r>
       <r>   2.2902  1.0000</r>
       <r>   4.5569  1.0000</r>
       <r>   4.6157  1.0000</r>
       <r>   4.6157  1.0000</r>
       <r>   4.6965  1.0000</r>
       <r>   8.3332  0.0000</r>
       <r>   8.4242  0.0000</r>
       <r>   8.4242  0.0000</r>
       <r>   8.4806  0.0000</r>
       <r>  10.6424  0.0000</r>
      </set>
      <set comment="kpoint 23">
       <r>  -4.1882  1.0000</r>
       <r>  -3.9789  1.0000</r>
       <r>  -3.9789  1.0000</r>
       <r>  -3.7791  1.0000</r>
       <r>   0.1424  1.0000</r>
       <r>   0.3829  1.0000</r>
       <r>   0.3829  1.0000</r>
       <r>   0.6422  1.0000</r>
       <r>   2.0955  1.0000</r>
       <r>   2.2772  1.0000</r>
       <r>   2.2772  1.0000</r>
       <r>   2.4689  1.0000</r>
       <r>   4.4908  1.0000</r>
       <r>   4.5856  1.0000</r>
       <r>   4.5856  1.0000</r>
       <r>   4.7677  1.0000</r>
       <r>   8.2627  0.0000</r>
       <r>   8.4752  0.0000</r>
       <r>   8.4752  0.0000</r>
       <r>   8.5498  0.0000</r>
       <r>  10.4138  0.0000</r>
      </set>
      <set comment="kpoint 24">
       <r>  -4.2755  1.0000</r>
       <r>  -3.9611  1.0000</r>
       <r>  -3.9611  1.0000</r>
       <r>  -3.6699  1.0000</r>
       <r>  -0.0534  1.0000</r>
       <r>   0.2898  1.0000</r>
       <r>   0.2898  1.0000</r>
       <r>   0.6746  1.0000</r>
       <r>   2.1245  1.0000</r>
       <r>   2.3967  1.0000</r>
       <r>   2.3967  1.0000</r>
       <r>   2.6952  1.0000</r>
       <r>   4.4292  1.0000</r>
       <r>   4.5383  1.0000</r>
       <r>   4.5383  1.0000</r>
       <r>   4.8369  1.0000</r>
       <r>   8.1975  0.0000</r>
       <r>   8.5574  0.0000</r>
       <r>   8.5574  0.0000</r>
       <r>   8.6067  0.0000</r>
       <r>  10.1057  0.0000</r>
      </set>
      <set comment="kpoint 25">
       <r>  -4.3550  1.0000</r>
       <r>  -3.9366  1.0000</r>
       <r>  -3.9366  1.0000</r>
       <r>  -3.5637  1.0000</r>
       <r>  -0.2529  1.0000</r>
       <r>   0.1783  1.0000</r>
       <r>   0.1783  1.0000</r>
       <r>   0.6836  1.0000</r>
       <r>   2.1835  1.0000</r>
       <r>   2.5425  1.0000</r>
       <r>   2.5425  1.0000</r>
       <r>   2.9573  1.0000</r>
       <r>   4.3727  1.0000</r>
       <r>   4.4770  1.0000</r>
       <r>   4.4770  1.0000</r>
       <r>   4.9015  1.0000</r>
       <r>   8.1389  0.0000</r>
       <r>   8.6398  0.0000</r>
       <r>   8.6665  0.0000</r>
       <r>   8.6665  0.0000</r>
       <r>   9.7778  0.0000</r>
      </set>
      <set comment="kpoint 26">
       <r>  -4.4263  1.0000</r>
       <r>  -3.9055  1.0000</r>
       <r>  -3.9055  1.0000</r>
       <r>  -3.4647  1.0000</r>
       <r>  -0.4428  1.0000</r>
       <r>   0.0573  1.0000</r>
       <r>   0.0573  1.0000</r>
       <r>   0.6781  1.0000</r>
       <r>   2.2653  1.0000</r>
       <r>   2.7014  1.0000</r>
       <r>   2.7014  1.0000</r>
       <r>   3.2422  1.0000</r>
       <r>   4.3226  1.0000</r>
       <r>   4.4068  1.0000</r>
       <r>   4.4068  1.0000</r>
       <r>   4.9598  1.0000</r>
       <r>   8.0887  0.0000</r>
       <r>   8.6321  0.0000</r>
       <r>   8.7935  0.0000</r>
       <r>   8.7935  0.0000</r>
       <r>   9.4601  0.0000</r>
      </set>
      <set comment="kpoint 27">
       <r>  -4.4887  1.0000</r>
       <r>  -3.8680  1.0000</r>
       <r>  -3.8680  1.0000</r>
       <r>  -3.3799  1.0000</r>
       <r>  -0.6120  1.0000</r>
       <r>  -0.0661  1.0000</r>
       <r>  -0.0661  1.0000</r>
       <r>   0.6652  1.0000</r>
       <r>   2.3642  1.0000</r>
       <r>   2.8624  1.0000</r>
       <r>   2.8624  1.0000</r>
       <r>   3.5403  1.0000</r>
       <r>   4.2787  1.0000</r>
       <r>   4.3335  1.0000</r>
       <r>   4.3335  1.0000</r>
       <r>   5.0084  1.0000</r>
       <r>   8.0475  0.0000</r>
       <r>   8.5652  0.0000</r>
       <r>   8.8960  0.0000</r>
       <r>   8.8961  0.0000</r>
       <r>   9.2044  0.0000</r>
      </set>
      <set comment="kpoint 28">
       <r>  -4.5423  1.0000</r>
       <r>  -3.8247  1.0000</r>
       <r>  -3.8247  1.0000</r>
       <r>  -3.3170  1.0000</r>
       <r>  -0.7489  1.0000</r>
       <r>  -0.1877  1.0000</r>
       <r>  -0.1877  1.0000</r>
       <r>   0.6494  1.0000</r>
       <r>   2.4765  1.0000</r>
       <r>   3.0119  1.0000</r>
       <r>   3.0119  1.0000</r>
       <r>   3.8421  1.0000</r>
       <r>   4.2416  1.0000</r>
       <r>   4.2637  1.0000</r>
       <r>   4.2637  1.0000</r>
       <r>   5.0439  1.0000</r>
       <r>   8.0152  0.0000</r>
       <r>   8.4340  0.0000</r>
       <r>   8.7704  0.0000</r>
       <r>   8.7704  0.0000</r>
       <r>   9.2163  0.0000</r>
      </set>
      <set comment="kpoint 29">
       <r>  -4.5862  1.0000</r>
       <r>  -3.7760  1.0000</r>
       <r>  -3.7760  1.0000</r>
       <r>  -3.2852  1.0000</r>
       <r>  -0.8423  1.0000</r>
       <r>  -0.3039  1.0000</r>
       <r>  -0.3039  1.0000</r>
       <r>   0.6338  1.0000</r>
       <r>   2.5994  1.0000</r>
       <r>   3.1360  1.0000</r>
       <r>   3.1360  1.0000</r>
       <r>   4.1382  1.0000</r>
       <r>   4.2069  1.0000</r>
       <r>   4.2069  1.0000</r>
       <r>   4.2118  1.0000</r>
       <r>   5.0643  1.0000</r>
       <r>   7.9923  0.0000</r>
       <r>   8.2604  0.0000</r>
       <r>   8.5340  0.0000</r>
       <r>   8.5340  0.0000</r>
       <r>   9.3892  0.0000</r>
      </set>
      <set comment="kpoint 30">
       <r>  -4.6207  1.0000</r>
       <r>  -3.7225  1.0000</r>
       <r>  -3.7225  1.0000</r>
       <r>  -3.2915  1.0000</r>
       <r>  -0.8828  1.0000</r>
       <r>  -0.4126  1.0000</r>
       <r>  -0.4126  1.0000</r>
       <r>   0.6202  1.0000</r>
       <r>   2.7311  1.0000</r>
       <r>   3.2183  1.0000</r>
       <r>   3.2183  1.0000</r>
       <r>   4.1717  1.0000</r>
       <r>   4.1717  1.0000</r>
       <r>   4.1893  1.0000</r>
       <r>   4.4162  1.0000</r>
       <r>   5.0668  1.0000</r>
       <r>   7.9788  0.0000</r>
       <r>   8.0750  0.0000</r>
       <r>   8.3201  0.0000</r>
       <r>   8.3201  0.0000</r>
       <r>   9.4306  0.0000</r>
      </set>
      <set comment="kpoint 31">
       <r>  -4.6207  1.0000</r>
       <r>  -3.7225  1.0000</r>
       <r>  -3.7225  1.0000</r>
       <r>  -3.2915  1.0000</r>
       <r>  -0.8828  1.0000</r>
       <r>  -0.4126  1.0000</r>
       <r>  -0.4126  1.0000</r>
       <r>   0.6202  1.0000</r>
       <r>   2.7311  1.0000</r>
       <r>   3.2183  1.0000</r>
       <r>   3.2183  1.0000</r>
       <r>   4.1717  1.0000</r>
       <r>   4.1717  1.0000</r>
       <r>   4.1893  1.0000</r>
       <r>   4.4162  1.0000</r>
       <r>   5.0668  1.0000</r>
       <r>   7.9788  0.0000</r>
       <r>   8.0750  0.0000</r>
       <r>   8.3201  0.0000</r>
       <r>   8.3201  0.0000</r>
       <r>   9.4290  0.0000</r>
      </set>
      <set comment="kpoint 32">
       <r>  -4.6653  1.0000</r>
       <r>  -3.5403  1.0000</r>
       <r>  -3.5403  1.0000</r>
       <r>  -3.5403  1.0000</r>
       <r>  -0.6766  1.0000</r>
       <r>  -0.6766  1.0000</r>
       <r>  -0.6766  1.0000</r>
       <r>   0.6012  1.0000</r>
       <r>   3.1657  1.0000</r>
       <r>   3.1657  1.0000</r>
       <r>   3.1657  1.0000</r>
       <r>   4.1717  1.0000</r>
       <r>   4.1717  1.0000</r>
       <r>   4.1717  1.0000</r>
       <r>   4.9575  1.0000</r>
       <r>   4.9575  1.0000</r>
       <r>   7.7480  0.0000</r>
       <r>   7.9960  0.0000</r>
       <r>   7.9960  0.0000</r>
       <r>   7.9960  0.0000</r>
       <r>   9.4612  0.0000</r>
      </set>
      <set comment="kpoint 33">
       <r>  -4.6201  1.0000</r>
       <r>  -3.9931  1.0000</r>
       <r>  -3.3443  1.0000</r>
       <r>  -3.3443  1.0000</r>
       <r>  -0.8261  1.0000</r>
       <r>  -0.8261  1.0000</r>
       <r>  -0.1109  1.0000</r>
       <r>   0.6188  1.0000</r>
       <r>   2.8586  1.0000</r>
       <r>   2.8586  1.0000</r>
       <r>   3.6358  1.0000</r>
       <r>   4.0537  1.0000</r>
       <r>   4.0537  1.0000</r>
       <r>   4.2290  1.0000</r>
       <r>   4.6995  1.0000</r>
       <r>   4.7604  1.0000</r>
       <r>   8.0759  0.0000</r>
       <r>   8.0840  0.0000</r>
       <r>   8.2793  0.0000</r>
       <r>   8.2793  0.0000</r>
       <r>   9.2468  0.0000</r>
      </set>
      <set comment="kpoint 34">
       <r>  -4.4841  1.0000</r>
       <r>  -4.4841  1.0000</r>
       <r>  -3.1571  1.0000</r>
       <r>  -3.1571  1.0000</r>
       <r>  -0.8558  1.0000</r>
       <r>  -0.8558  1.0000</r>
       <r>   0.6550  1.0000</r>
       <r>   0.6550  1.0000</r>
       <r>   2.4841  1.0000</r>
       <r>   2.4841  1.0000</r>
       <r>   3.7815  1.0000</r>
       <r>   3.7815  1.0000</r>
       <r>   4.1191  1.0000</r>
       <r>   4.1191  1.0000</r>
       <r>   4.3629  1.0000</r>
       <r>   4.3629  1.0000</r>
       <r>   8.2108  0.0000</r>
       <r>   8.2108  0.0000</r>
       <r>   9.0434  0.0000</r>
       <r>   9.0525  0.0000</r>
       <r>   9.0857  0.0000</r>
      </set>
      <set comment="kpoint 35">
       <r>  -4.9402  1.0000</r>
       <r>  -4.2581  1.0000</r>
       <r>  -2.9892  1.0000</r>
       <r>  -2.9892  1.0000</r>
       <r>  -0.8088  1.0000</r>
       <r>  -0.8088  1.0000</r>
       <r>   0.6528  1.0000</r>
       <r>   1.5450  1.0000</r>
       <r>   2.1433  1.0000</r>
       <r>   2.1433  1.0000</r>
       <r>   3.4375  1.0000</r>
       <r>   3.5122  1.0000</r>
       <r>   3.5122  1.0000</r>
       <r>   4.0151  1.0000</r>
       <r>   4.5710  1.0000</r>
       <r>   4.5931  1.0000</r>
       <r>   7.8132  0.0000</r>
       <r>   8.3276  0.0000</r>
       <r>   8.4191  0.0000</r>
       <r>   8.4191  0.0000</r>
       <r>   9.4059  0.0000</r>
      </set>
      <set comment="kpoint 36">
       <r>  -5.3309  1.0000</r>
       <r>  -3.9432  1.0000</r>
       <r>  -2.8287  1.0000</r>
       <r>  -2.8287  1.0000</r>
       <r>  -0.7940  1.0000</r>
       <r>  -0.7940  1.0000</r>
       <r>   0.4947  1.0000</r>
       <r>   1.9721  1.0000</r>
       <r>   1.9721  1.0000</r>
       <r>   2.5226  1.0000</r>
       <r>   2.9455  1.0000</r>
       <r>   3.3140  1.0000</r>
       <r>   3.3140  1.0000</r>
       <r>   3.6976  1.0000</r>
       <r>   4.8471  1.0000</r>
       <r>   5.0358  1.0000</r>
       <r>   7.3758  0.0000</r>
       <r>   7.8289  0.0000</r>
       <r>   7.8289  0.0000</r>
       <r>   8.4084  0.0000</r>
       <r>   9.1859  0.0000</r>
      </set>
      <set comment="kpoint 37">
       <r>  -5.6429  1.0000</r>
       <r>  -3.5423  1.0000</r>
       <r>  -2.6528  1.0000</r>
       <r>  -2.6528  1.0000</r>
       <r>  -0.9252  1.0000</r>
       <r>  -0.9252  1.0000</r>
       <r>   0.0786  1.0000</r>
       <r>   2.0855  1.0000</r>
       <r>   2.0855  1.0000</r>
       <r>   2.7774  1.0000</r>
       <r>   3.1897  1.0000</r>
       <r>   3.1897  1.0000</r>
       <r>   3.4358  1.0000</r>
       <r>   3.5565  1.0000</r>
       <r>   5.1786  1.0000</r>
       <r>   5.4222  1.0000</r>
       <r>   7.0095  0.0000</r>
       <r>   7.3300  0.0000</r>
       <r>   7.3300  0.0000</r>
       <r>   8.2669  0.0000</r>
       <r>   8.4627  0.0000</r>
      </set>
      <set comment="kpoint 38">
       <r>  -5.8693  1.0000</r>
       <r>  -3.0595  1.0000</r>
       <r>  -2.4412  1.0000</r>
       <r>  -2.4412  1.0000</r>
       <r>  -1.2008  1.0000</r>
       <r>  -1.2008  1.0000</r>
       <r>  -0.5321  1.0000</r>
       <r>   2.4478  1.0000</r>
       <r>   2.4478  1.0000</r>
       <r>   2.8572  1.0000</r>
       <r>   3.1218  1.0000</r>
       <r>   3.1218  1.0000</r>
       <r>   3.2417  1.0000</r>
       <r>   4.5975  1.0000</r>
       <r>   5.5327  1.0000</r>
       <r>   5.7219  1.0000</r>
       <r>   6.7469  0.0000</r>
       <r>   6.9497  0.0000</r>
       <r>   6.9497  0.0000</r>
       <r>   7.4891  0.0000</r>
       <r>   7.8665  0.0000</r>
      </set>
      <set comment="kpoint 39">
       <r>  -6.0063  1.0000</r>
       <r>  -2.5014  1.0000</r>
       <r>  -2.1833  1.0000</r>
       <r>  -2.1833  1.0000</r>
       <r>  -1.5402  1.0000</r>
       <r>  -1.5402  1.0000</r>
       <r>  -1.2101  1.0000</r>
       <r>   2.8752  1.0000</r>
       <r>   2.8752  1.0000</r>
       <r>   3.0094  1.0000</r>
       <r>   3.0910  1.0000</r>
       <r>   3.0910  1.0000</r>
       <r>   3.1227  1.0000</r>
       <r>   5.5274  1.0000</r>
       <r>   5.8425  1.0000</r>
       <r>   5.9113  1.0000</r>
       <r>   6.6101  0.0000</r>
       <r>   6.7101  0.0000</r>
       <r>   6.7101  0.0000</r>
       <r>   6.9315  0.0000</r>
       <r>   7.0091  0.0000</r>
      </set>
      <set comment="kpoint 40">
       <r>  -6.0521  1.0000</r>
       <r>  -1.8788  1.0000</r>
       <r>  -1.8788  1.0000</r>
       <r>  -1.8788  1.0000</r>
       <r>  -1.8788  1.0000</r>
       <r>  -1.8788  1.0000</r>
       <r>  -1.8788  1.0000</r>
       <r>   3.0827  1.0000</r>
       <r>   3.0827  1.0000</r>
       <r>   3.0827  1.0000</r>
       <r>   3.0827  1.0000</r>
       <r>   3.0827  1.0000</r>
       <r>   3.0827  1.0000</r>
       <r>   5.9755  1.0000</r>
       <r>   5.9755  1.0000</r>
       <r>   5.9755  1.0000</r>
       <r>   6.6458  0.0000</r>
       <r>   6.6458  0.0000</r>
       <r>   6.6458  0.0000</r>
       <r>   6.6458  0.0000</r>
       <r>   6.6458  0.0000</r>
      </set>
     </set>
    </set>
   </array>
  </eigenvalues>
  <dos>
   <i name="efermi">      6.30229716</i>
   <total>
    <array>
     <dimension dim="1">gridpoints</dimension>
     <dimension dim="2">spin</dimension>
     <field>energy</field>
     <field>total</field>
     <field>integrated</field>
     <set>
      <set comment="spin 1">
       <r>  -7.0521   0.0000   0.0000 </r>
       <r>  -6.9894   0.0000   0.0000 </r>
       <r>  -6.9267   0.0000   0.0000 </r>
       <r>  -6.8640   0.0000   0.0000 </r>
       <r>  -6.8013   0.0000   0.0000 </r>
       <r>  -6.7387   0.0000   0.0000 </r>
       <r>  -6.6760   0.0000   0.0000 </r>
       <r>  -6.6133   0.0000   0.0000 </r>
       <r>  -6.5506   0.0000   0.0000 </r>
       <r>  -6.4879   0.0000   0.0000 </r>
       <r>  -6.4252   0.0000   0.0000 </r>
       <r>  -6.3625   0.0000   0.0000 </r>
       <r>  -6.2998   0.0006   0.0000 </r>
       <r>  -6.2371   0.0121   0.0008 </r>
       <r>  -6.1744   0.1169   0.0081 </r>
       <r>  -6.1118   0.5593   0.0432 </r>
       <r>  -6.0491   1.3635   0.1287 </r>
       <r>  -5.9864   1.8081   0.2420 </r>
       <r>  -5.9237   1.5549   0.3395 </r>
       <r>  -5.8610   1.1752   0.4132 </r>
       <r>  -5.7983   0.8734   0.4679 </r>
       <r>  -5.7356   0.6745   0.5102 </r>
       <r>  -5.6729   0.7339   0.5562 </r>
       <r>  -5.6102   0.7831   0.6053 </r>
       <r>  -5.5475   0.5356   0.6389 </r>
       <r>  -5.4848   0.3355   0.6599 </r>
       <r>  -5.4222   0.5004   0.6913 </r>
       <r>  -5.3595   0.7315   0.7371 </r>
       <r>  -5.2968   0.6233   0.7762 </r>
       <r>  -5.2341   0.3196   0.7963 </r>
       <r>  -5.1714   0.2181   0.8099 </r>
       <r>  -5.1087   0.4085   0.8355 </r>
       <r>  -5.0460   0.5817   0.8720 </r>
       <r>  -4.9833   0.5230   0.9048 </r>
       <r>  -4.9206   0.3995   0.9298 </r>
       <r>  -4.8579   0.3037   0.9489 </r>
       <r>  -4.7953   0.3386   0.9701 </r>
       <r>  -4.7326   0.6442   1.0105 </r>
       <r>  -4.6699   1.2324   1.0877 </r>
       <r>  -4.6072   1.7893   1.1999 </r>
       <r>  -4.5445   1.8948   1.3187 </r>
       <r>  -4.4818   1.7581   1.4289 </r>
       <r>  -4.4191   1.5704   1.5274 </r>
       <r>  -4.3564   1.3140   1.6097 </r>
       <r>  -4.2937   1.1905   1.6844 </r>
       <r>  -4.2310   1.1928   1.7592 </r>
       <r>  -4.1684   1.0630   1.8258 </r>
       <r>  -4.1057   1.2308   1.9030 </r>
       <r>  -4.0430   2.7943   2.0781 </r>
       <r>  -3.9803   5.4481   2.4197 </r>
       <r>  -3.9176   6.5919   2.8329 </r>
       <r>  -3.8549   5.5768   3.1825 </r>
       <r>  -3.7922   4.6199   3.4722 </r>
       <r>  -3.7295   4.8824   3.7782 </r>
       <r>  -3.6668   5.2310   4.1062 </r>
       <r>  -3.6041   4.8424   4.4097 </r>
       <r>  -3.5414   4.3645   4.6834 </r>
       <r>  -3.4788   3.5627   4.9067 </r>
       <r>  -3.4161   2.7715   5.0805 </r>
       <r>  -3.3534   2.8624   5.2599 </r>
       <r>  -3.2907   3.1118   5.4550 </r>
       <r>  -3.2280   2.8126   5.6313 </r>
       <r>  -3.1653   2.2869   5.7747 </r>
       <r>  -3.1026   1.8431   5.8902 </r>
       <r>  -3.0399   1.8196   6.0043 </r>
       <r>  -2.9772   2.1010   6.1360 </r>
       <r>  -2.9145   1.8457   6.2517 </r>
       <r>  -2.8519   1.2641   6.3309 </r>
       <r>  -2.7892   1.1042   6.4002 </r>
       <r>  -2.7265   1.4405   6.4905 </r>
       <r>  -2.6638   1.9937   6.6155 </r>
       <r>  -2.6011   1.9009   6.7346 </r>
       <r>  -2.5384   1.2227   6.8113 </r>
       <r>  -2.4757   1.0192   6.8752 </r>
       <r>  -2.4130   1.2015   6.9505 </r>
       <r>  -2.3503   1.3712   7.0365 </r>
       <r>  -2.2876   1.6631   7.1407 </r>
       <r>  -2.2250   1.7232   7.2487 </r>
       <r>  -2.1623   1.3608   7.3341 </r>
       <r>  -2.0996   0.8620   7.3881 </r>
       <r>  -2.0369   0.7058   7.4323 </r>
       <r>  -1.9742   1.6731   7.5372 </r>
       <r>  -1.9115   4.1264   7.7959 </r>
       <r>  -1.8488   5.7723   8.1578 </r>
       <r>  -1.7861   4.1703   8.4192 </r>
       <r>  -1.7234   1.6679   8.5238 </r>
       <r>  -1.6607   0.6170   8.5625 </r>
       <r>  -1.5980   0.6382   8.6025 </r>
       <r>  -1.5354   1.0259   8.6668 </r>
       <r>  -1.4727   1.5461   8.7637 </r>
       <r>  -1.4100   1.8452   8.8794 </r>
       <r>  -1.3473   1.3772   8.9657 </r>
       <r>  -1.2846   0.7726   9.0142 </r>
       <r>  -1.2219   0.8663   9.0685 </r>
       <r>  -1.1592   1.2734   9.1483 </r>
       <r>  -1.0965   1.7758   9.2596 </r>
       <r>  -1.0338   2.8262   9.4368 </r>
       <r>  -0.9711   3.8664   9.6792 </r>
       <r>  -0.9085   4.3726   9.9533 </r>
       <r>  -0.8458   4.8267  10.2559 </r>
       <r>  -0.7831   4.6297  10.5461 </r>
       <r>  -0.7204   3.7098  10.7787 </r>
       <r>  -0.6577   3.2986  10.9855 </r>
       <r>  -0.5950   3.2132  11.1869 </r>
       <r>  -0.5323   3.1361  11.3835 </r>
       <r>  -0.4696   3.4363  11.5989 </r>
       <r>  -0.4069   3.4691  11.8164 </r>
       <r>  -0.3442   2.5982  11.9793 </r>
       <r>  -0.2816   1.7998  12.0921 </r>
       <r>  -0.2189   1.8028  12.2051 </r>
       <r>  -0.1562   2.0586  12.3342 </r>
       <r>  -0.0935   2.0294  12.4614 </r>
       <r>  -0.0308   1.8439  12.5770 </r>
       <r>   0.0319   1.7486  12.6866 </r>
       <r>   0.0946   1.8862  12.8049 </r>
       <r>   0.1573   1.9544  12.9274 </r>
       <r>   0.2200   1.7512  13.0372 </r>
       <r>   0.2827   1.8270  13.1517 </r>
       <r>   0.3454   2.4811  13.3073 </r>
       <r>   0.4080   3.6107  13.5336 </r>
       <r>   0.4707   4.6264  13.8237 </r>
       <r>   0.5334   4.4217  14.1009 </r>
       <r>   0.5961   4.0794  14.3566 </r>
       <r>   0.6588   4.3113  14.6269 </r>
       <r>   0.7215   3.3404  14.8363 </r>
       <r>   0.7842   1.4483  14.9271 </r>
       <r>   0.8469   0.3349  14.9481 </r>
       <r>   0.9096   0.0920  14.9538 </r>
       <r>   0.9723   0.1786  14.9650 </r>
       <r>   1.0349   0.2724  14.9821 </r>
       <r>   1.0976   0.2013  14.9947 </r>
       <r>   1.1603   0.0712  14.9992 </r>
       <r>   1.2230   0.0121  14.9999 </r>
       <r>   1.2857   0.0024  15.0001 </r>
       <r>   1.3484   0.0220  15.0015 </r>
       <r>   1.4111   0.1625  15.0117 </r>
       <r>   1.4738   0.6143  15.0502 </r>
       <r>   1.5365   1.2340  15.1275 </r>
       <r>   1.5992   1.4098  15.2159 </r>
       <r>   1.6618   1.0321  15.2806 </r>
       <r>   1.7245   0.6323  15.3203 </r>
       <r>   1.7872   0.4723  15.3499 </r>
       <r>   1.8499   0.4578  15.3786 </r>
       <r>   1.9126   0.5532  15.4132 </r>
       <r>   1.9753   0.8620  15.4673 </r>
       <r>   2.0380   1.6471  15.5705 </r>
       <r>   2.1007   3.3410  15.7800 </r>
       <r>   2.1634   5.4954  16.1245 </r>
       <r>   2.2261   6.6013  16.5383 </r>
       <r>   2.2888   6.1224  16.9221 </r>
       <r>   2.3514   4.7637  17.2208 </r>
       <r>   2.4141   3.8327  17.4611 </r>
       <r>   2.4768   4.1657  17.7222 </r>
       <r>   2.5395   4.8834  18.0283 </r>
       <r>   2.6022   4.7731  18.3276 </r>
       <r>   2.6649   3.8515  18.5690 </r>
       <r>   2.7276   3.0384  18.7595 </r>
       <r>   2.7903   2.9589  18.9450 </r>
       <r>   2.8530   3.7578  19.1806 </r>
       <r>   2.9157   4.9841  19.4930 </r>
       <r>   2.9783   6.5307  19.9025 </r>
       <r>   3.0410   9.4074  20.4922 </r>
       <r>   3.1037  12.2526  21.2603 </r>
       <r>   3.1664  11.7363  21.9961 </r>
       <r>   3.2291   8.5884  22.5345 </r>
       <r>   3.2918   5.4971  22.8791 </r>
       <r>   3.3545   3.5114  23.0992 </r>
       <r>   3.4172   2.6638  23.2662 </r>
       <r>   3.4799   2.5023  23.4231 </r>
       <r>   3.5426   2.8304  23.6005 </r>
       <r>   3.6052   3.3107  23.8081 </r>
       <r>   3.6679   3.0952  24.0021 </r>
       <r>   3.7306   2.2978  24.1462 </r>
       <r>   3.7933   2.1638  24.2818 </r>
       <r>   3.8560   2.5752  24.4433 </r>
       <r>   3.9187   2.2649  24.5852 </r>
       <r>   3.9814   1.7245  24.6934 </r>
       <r>   4.0441   2.3531  24.8409 </r>
       <r>   4.1068   4.0060  25.0920 </r>
       <r>   4.1695   5.6661  25.4472 </r>
       <r>   4.2321   5.9826  25.8223 </r>
       <r>   4.2948   4.9837  26.1347 </r>
       <r>   4.3575   4.6396  26.4255 </r>
       <r>   4.4202   5.3766  26.7626 </r>
       <r>   4.4829   5.9199  27.1337 </r>
       <r>   4.5456   6.0114  27.5106 </r>
       <r>   4.6083   6.5186  27.9192 </r>
       <r>   4.6710   6.6751  28.3377 </r>
       <r>   4.7337   6.0478  28.7168 </r>
       <r>   4.7964   5.2857  29.0482 </r>
       <r>   4.8591   4.1684  29.3095 </r>
       <r>   4.9217   3.2864  29.5155 </r>
       <r>   4.9844   3.1394  29.7123 </r>
       <r>   5.0471   3.2727  29.9175 </r>
       <r>   5.1098   3.1140  30.1127 </r>
       <r>   5.1725   2.3009  30.2570 </r>
       <r>   5.2352   1.3509  30.3417 </r>
       <r>   5.2979   0.9244  30.3996 </r>
       <r>   5.3606   0.9035  30.4563 </r>
       <r>   5.4233   1.0786  30.5239 </r>
       <r>   5.4860   1.5486  30.6210 </r>
       <r>   5.5486   1.9825  30.7452 </r>
       <r>   5.6113   1.7558  30.8553 </r>
       <r>   5.6740   1.4164  30.9441 </r>
       <r>   5.7367   1.5926  31.0440 </r>
       <r>   5.7994   1.8246  31.1583 </r>
       <r>   5.8621   2.2913  31.3020 </r>
       <r>   5.9248   3.3425  31.5115 </r>
       <r>   5.9875   3.8635  31.7537 </r>
       <r>   6.0502   2.7071  31.9234 </r>
       <r>   6.1129   1.0130  31.9869 </r>
       <r>   6.1755   0.1903  31.9989 </r>
       <r>   6.2382   0.0174  32.0000 </r>
       <r>   6.3009   0.0008  32.0000 </r>
       <r>   6.3636   0.0007  32.0000 </r>
       <r>   6.4263   0.0178  32.0012 </r>
       <r>   6.4890   0.2256  32.0153 </r>
       <r>   6.5517   1.3989  32.1030 </r>
       <r>   6.6144   4.2879  32.3718 </r>
       <r>   6.6771   6.7060  32.7922 </r>
       <r>   6.7398   5.9703  33.1665 </r>
       <r>   6.8025   4.0947  33.4232 </r>
       <r>   6.8651   3.1027  33.6177 </r>
       <r>   6.9278   2.8755  33.7980 </r>
       <r>   6.9905   3.0458  33.9889 </r>
       <r>   7.0532   2.6372  34.1542 </r>
       <r>   7.1159   1.7693  34.2651 </r>
       <r>   7.1786   1.5459  34.3621 </r>
       <r>   7.2413   1.8390  34.4773 </r>
       <r>   7.3040   2.0502  34.6059 </r>
       <r>   7.3667   1.8421  34.7214 </r>
       <r>   7.4294   1.4787  34.8141 </r>
       <r>   7.4920   1.7886  34.9262 </r>
       <r>   7.5547   2.5286  35.0847 </r>
       <r>   7.6174   3.0734  35.2774 </r>
       <r>   7.6801   3.3884  35.4898 </r>
       <r>   7.7428   3.3179  35.6978 </r>
       <r>   7.8055   3.1606  35.8959 </r>
       <r>   7.8682   2.8943  36.0774 </r>
       <r>   7.9309   2.8263  36.2546 </r>
       <r>   7.9936   3.6803  36.4853 </r>
       <r>   8.0563   4.5152  36.7683 </r>
       <r>   8.1189   4.5823  37.0556 </r>
       <r>   8.1816   4.5028  37.3379 </r>
       <r>   8.2443   4.7462  37.6354 </r>
       <r>   8.3070   5.2737  37.9660 </r>
       <r>   8.3697   5.8759  38.3344 </r>
       <r>   8.4324   6.1609  38.7206 </r>
       <r>   8.4951   5.3800  39.0579 </r>
       <r>   8.5578   4.1754  39.3197 </r>
       <r>   8.6205   3.6143  39.5462 </r>
       <r>   8.6832   3.3258  39.7547 </r>
       <r>   8.7459   2.8238  39.9318 </r>
       <r>   8.8085   2.4546  40.0856 </r>
       <r>   8.8712   2.2387  40.2260 </r>
       <r>   8.9339   1.9948  40.3510 </r>
       <r>   8.9966   1.7483  40.4606 </r>
       <r>   9.0593   1.5328  40.5567 </r>
       <r>   9.1220   1.3588  40.6419 </r>
       <r>   9.1847   1.5043  40.7362 </r>
       <r>   9.2474   1.9725  40.8599 </r>
       <r>   9.3101   2.2392  41.0003 </r>
       <r>   9.3728   2.4365  41.1530 </r>
       <r>   9.4354   2.8216  41.3299 </r>
       <r>   9.4981   2.6943  41.4988 </r>
       <r>   9.5608   1.6731  41.6037 </r>
       <r>   9.6235   0.6165  41.6423 </r>
       <r>   9.6862   0.1869  41.6540 </r>
       <r>   9.7489   0.2070  41.6670 </r>
       <r>   9.8116   0.2737  41.6842 </r>
       <r>   9.8743   0.1841  41.6957 </r>
       <r>   9.9370   0.0656  41.6998 </r>
       <r>   9.9997   0.0580  41.7035 </r>
       <r>  10.0623   0.1860  41.7151 </r>
       <r>  10.1250   0.3781  41.7388 </r>
       <r>  10.1877   0.4563  41.7674 </r>
       <r>  10.2504   0.3458  41.7891 </r>
       <r>  10.3131   0.1986  41.8016 </r>
       <r>  10.3758   0.2072  41.8145 </r>
       <r>  10.4385   0.2772  41.8319 </r>
       <r>  10.5012   0.2206  41.8458 </r>
       <r>  10.5639   0.1662  41.8562 </r>
       <r>  10.6266   0.2842  41.8740 </r>
       <r>  10.6893   0.4943  41.9050 </r>
       <r>  10.7519   0.6433  41.9453 </r>
       <r>  10.8146   0.5489  41.9797 </r>
       <r>  10.8773   0.2566  41.9958 </r>
       <r>  10.9400   0.0598  41.9996 </r>
       <r>  11.0027   0.0067  42.0000 </r>
       <r>  11.0654   0.0004  42.0000 </r>
       <r>  11.1281   0.0000  42.0000 </r>
       <r>  11.1908   0.0000  42.0000 </r>
       <r>  11.2535   0.0000  42.0000 </r>
       <r>  11.3162   0.0000  42.0000 </r>
       <r>  11.3788   0.0000  42.0000 </r>
       <r>  11.4415   0.0000  42.0000 </r>
       <r>  11.5042   0.0000  42.0000 </r>
       <r>  11.5669   0.0000  42.0000 </r>
       <r>  11.6296   0.0000  42.0000 </r>
       <r>  11.6923   0.0000  42.0000 </r>
       <r>  11.7550   0.0000  42.0000 </r>
      </set>
     </set>
    </array>
   </total>
   <partial>
    <array>
     <dimension dim="1">gridpoints</dimension>
     <dimension dim="2">spin</dimension>
     <dimension dim="3">ion</dimension>
     <field>energy</field>
     <field>  s</field>
     <field> py</field>
     <field> pz</field>
     <field> px</field>
     <field>dxy</field>
     <field>dyz</field>
     <field>dz2</field>
     <field>dxz</field>
     <field>dx2</field>
     <set>
      <set comment="ion 1">
       <set comment="spin 1">
        <r>  -7.0521   0.0000   0.0000   0.0000   0.0000   0.0000   0.0000   0.0000   0.0000   0.0000 </r>
        <r>  -6.9894   0.0000   0.0000   0.0000   0.0000   0.0000   0.0000   0.0000   0.0000   0.0000 </r>
        <r>  -6.9267   0.0000   0.0000   0.0000   0.0000   0.0000   0.0000   0.0000   0.0000   0.0000 </r>
        <r>  -6.8640   0.0000   0.0000   0.0000   0.0000   0.0000   0.0000   0.0000   0.0000   0.0000 </r>
        <r>  -6.8013   0.0000   0.0000   0.0000   0.0000   0.0000   0.0000   0.0000   0.0000   0.0000 </r>
        <r>  -6.7387   0.0000   0.0000   0.0000   0.0000   0.0000   0.0000   0.0000   0.0000   0.0000 </r>
        <r>  -6.6760   0.0000   0.0000   0.0000   0.0000   0.0000   0.0000   0.0000   0.0000   0.0000 </r>
        <r>  -6.6133   0.0000   0.0000   0.0000   0.0000   0.0000   0.0000   0.0000   0.0000   0.0000 </r>
        <r>  -6.5506   0.0000   0.0000   0.0000   0.0000   0.0000   0.0000   0.0000   0.0000   0.0000 </r>
        <r>  -6.4879   0.0000   0.0000   0.0000   0.0000   0.0000   0.0000   0.0000   0.0000   0.0000 </r>
        <r>  -6.4252   0.0000   0.0000   0.0000   0.0000   0.0000   0.0000   0.0000   0.0000   0.0000 </r>
        <r>  -6.3625   0.0000   0.0000   0.0000   0.0000   0.0000   0.0000   0.0000   0.0000   0.0000 </r>
        <r>  -6.2998   0.0000   0.0000   0.0000   0.0000   0.0000   0.0000   0.0000   0.0000   0.0000 </r>
        <r>  -6.2371   0.0006   0.0000   0.0000   0.0000   0.0000   0.0000   0.0000   0.0000   0.0000 </r>
        <r>  -6.1744   0.0063   0.0000   0.0000   0.0000   0.0000   0.0000   0.0000   0.0000   0.0000 </r>
        <r>  -6.1118   0.0300   0.0000   0.0000   0.0000   0.0000   0.0000   0.0000   0.0000   0.0000 </r>
        <r>  -6.0491   0.0731   0.0000   0.0000   0.0000   0.0000   0.0000   0.0000   0.0000   0.0000 </r>
        <r>  -5.9864   0.0970   0.0001   0.0001   0.0000   0.0000   0.0000   0.0000   0.0000   0.0000 </r>
        <r>  -5.9237   0.0833   0.0002   0.0001   0.0001   0.0000   0.0000   0.0000   0.0000   0.0000 </r>
        <r>  -5.8610   0.0629   0.0002   0.0001   0.0001   0.0000   0.0000   0.0000   0.0000   0.0000 </r>
        <r>  -5.7983   0.0466   0.0002   0.0002   0.0001   0.0000   0.0000   0.0000   0.0000   0.0000 </r>
        <r>  -5.7356   0.0360   0.0002   0.0002   0.0001   0.0000   0.0000   0.0000   0.0000   0.0000 </r>
        <r>  -5.6729   0.0390   0.0004   0.0002   0.0001   0.0000   0.0000   0.0000   0.0000   0.0000 </r>
        <r>  -5.6102   0.0416   0.0004   0.0003   0.0001   0.0000   0.0000   0.0000   0.0000   0.0000 </r>
        <r>  -5.5475   0.0285   0.0003   0.0002   0.0001   0.0000   0.0000   0.0000   0.0000   0.0000 </r>
        <r>  -5.4848   0.0178   0.0002   0.0002   0.0001   0.0000   0.0000   0.0000   0.0000   0.0000 </r>
        <r>  -5.4222   0.0265   0.0004   0.0003   0.0002   0.0000   0.0000   0.0000   0.0000   0.0000 </r>
        <r>  -5.3595   0.0387   0.0006   0.0004   0.0002   0.0000   0.0000   0.0000   0.0000   0.0000 </r>
        <r>  -5.2968   0.0330   0.0006   0.0003   0.0002   0.0000   0.0000   0.0000   0.0000   0.0000 </r>
        <r>  -5.2341   0.0169   0.0003   0.0002   0.0001   0.0000   0.0000   0.0000   0.0000   0.0000 </r>
        <r>  -5.1714   0.0115   0.0002   0.0002   0.0001   0.0000   0.0000   0.0000   0.0000   0.0000 </r>
        <r>  -5.1087   0.0215   0.0004   0.0004   0.0002   0.0000   0.0000   0.0000   0.0000   0.0000 </r>
        <r>  -5.0460   0.0307   0.0006   0.0006   0.0003   0.0000   0.0000   0.0000   0.0000   0.0000 </r>
        <r>  -4.9833   0.0276   0.0007   0.0004   0.0003   0.0000   0.0000   0.0000   0.0000   0.0000 </r>
        <r>  -4.9206   0.0210   0.0006   0.0003   0.0002   0.0000   0.0000   0.0000   0.0000   0.0000 </r>
        <r>  -4.8579   0.0160   0.0005   0.0002   0.0001   0.0000   0.0000   0.0000   0.0000   0.0000 </r>
        <r>  -4.7953   0.0178   0.0005   0.0004   0.0001   0.0000   0.0000   0.0000   0.0000   0.0000 </r>
        <r>  -4.7326   0.0340   0.0009   0.0008   0.0004   0.0000   0.0000   0.0000   0.0000   0.0000 </r>
        <r>  -4.6699   0.0651   0.0015   0.0015   0.0010   0.0000   0.0000   0.0000   0.0000   0.0000 </r>
        <r>  -4.6072   0.0946   0.0023   0.0022   0.0015   0.0000   0.0000   0.0000   0.0000   0.0000 </r>
        <r>  -4.5445   0.1001   0.0029   0.0023   0.0014   0.0000   0.0000   0.0000   0.0000   0.0000 </r>
        <r>  -4.4818   0.0927   0.0032   0.0022   0.0010   0.0000   0.0000   0.0000   0.0000   0.0000 </r>
        <r>  -4.4191   0.0827   0.0031   0.0021   0.0008   0.0000   0.0000   0.0000   0.0000   0.0000 </r>
        <r>  -4.3564   0.0692   0.0027   0.0020   0.0006   0.0000   0.0000   0.0000   0.0000   0.0000 </r>
        <r>  -4.2937   0.0627   0.0025   0.0018   0.0006   0.0000   0.0000   0.0000   0.0000   0.0000 </r>
        <r>  -4.2310   0.0629   0.0026   0.0017   0.0007   0.0000   0.0000   0.0000   0.0000   0.0000 </r>
        <r>  -4.1684   0.0561   0.0023   0.0016   0.0007   0.0000   0.0000   0.0000   0.0000   0.0000 </r>
        <r>  -4.1057   0.0648   0.0027   0.0023   0.0007   0.0000   0.0000   0.0000   0.0000   0.0000 </r>
        <r>  -4.0430   0.1469   0.0064   0.0057   0.0016   0.0000   0.0000   0.0000   0.0000   0.0000 </r>
        <r>  -3.9803   0.2865   0.0126   0.0112   0.0032   0.0000   0.0000   0.0000   0.0000   0.0000 </r>
        <r>  -3.9176   0.3472   0.0153   0.0135   0.0040   0.0000   0.0000   0.0000   0.0000   0.0000 </r>
        <r>  -3.8549   0.2949   0.0125   0.0114   0.0037   0.0000   0.0000   0.0000   0.0000   0.0000 </r>
        <r>  -3.7922   0.2465   0.0095   0.0094   0.0037   0.0000   0.0000   0.0000   0.0000   0.0000 </r>
        <r>  -3.7295   0.2641   0.0088   0.0093   0.0048   0.0000   0.0000   0.0000   0.0000   0.0000 </r>
        <r>  -3.6668   0.2858   0.0086   0.0091   0.0059   0.0000   0.0000   0.0000   0.0000   0.0000 </r>
        <r>  -3.6041   0.2644   0.0086   0.0082   0.0057   0.0000   0.0000   0.0000   0.0000   0.0000 </r>
        <r>  -3.5414   0.2358   0.0092   0.0077   0.0053   0.0000   0.0000   0.0000   0.0000   0.0000 </r>
        <r>  -3.4788   0.1913   0.0080   0.0065   0.0046   0.0000   0.0000   0.0000   0.0000   0.0000 </r>
        <r>  -3.4161   0.1489   0.0059   0.0054   0.0042   0.0000   0.0000   0.0000   0.0000   0.0000 </r>
        <r>  -3.3534   0.1541   0.0056   0.0059   0.0047   0.0000   0.0000   0.0000   0.0000   0.0000 </r>
        <r>  -3.2907   0.1676   0.0062   0.0066   0.0052   0.0000   0.0000   0.0000   0.0000   0.0000 </r>
        <r>  -3.2280   0.1510   0.0057   0.0060   0.0051   0.0000   0.0000   0.0000   0.0000   0.0000 </r>
        <r>  -3.1653   0.1223   0.0047   0.0050   0.0045   0.0000   0.0000   0.0000   0.0000   0.0000 </r>
        <r>  -3.1026   0.0978   0.0045   0.0042   0.0034   0.0000   0.0000   0.0000   0.0000   0.0000 </r>
        <r>  -3.0399   0.0949   0.0057   0.0046   0.0029   0.0000   0.0000   0.0000   0.0000   0.0000 </r>
        <r>  -2.9772   0.1088   0.0062   0.0058   0.0038   0.0000   0.0000   0.0000   0.0000   0.0000 </r>
        <r>  -2.9145   0.0957   0.0045   0.0054   0.0041   0.0000   0.0000   0.0000   0.0000   0.0000 </r>
        <r>  -2.8519   0.0659   0.0023   0.0038   0.0035   0.0000   0.0000   0.0000   0.0000   0.0000 </r>
        <r>  -2.7892   0.0578   0.0017   0.0035   0.0033   0.0000   0.0000   0.0000   0.0000   0.0000 </r>
        <r>  -2.7265   0.0742   0.0032   0.0050   0.0039   0.0000   0.0000   0.0000   0.0000   0.0000 </r>
        <r>  -2.6638   0.1010   0.0052   0.0073   0.0051   0.0000   0.0000   0.0000   0.0000   0.0000 </r>
        <r>  -2.6011   0.0958   0.0052   0.0069   0.0050   0.0000   0.0000   0.0000   0.0000   0.0000 </r>
        <r>  -2.5384   0.0615   0.0040   0.0039   0.0033   0.0000   0.0000   0.0000   0.0000   0.0000 </r>
        <r>  -2.4757   0.0514   0.0035   0.0028   0.0031   0.0000   0.0000   0.0000   0.0000   0.0000 </r>
        <r>  -2.4130   0.0608   0.0032   0.0038   0.0043   0.0000   0.0000   0.0000   0.0000   0.0000 </r>
        <r>  -2.3503   0.0687   0.0039   0.0051   0.0044   0.0000   0.0000   0.0000   0.0000   0.0000 </r>
        <r>  -2.2876   0.0823   0.0057   0.0067   0.0046   0.0000   0.0000   0.0000   0.0000   0.0000 </r>
        <r>  -2.2250   0.0852   0.0052   0.0070   0.0056   0.0000   0.0000   0.0000   0.0000   0.0000 </r>
        <r>  -2.1623   0.0678   0.0025   0.0054   0.0061   0.0000   0.0000   0.0000   0.0000   0.0000 </r>
        <r>  -2.0996   0.0434   0.0008   0.0030   0.0049   0.0000   0.0000   0.0000   0.0000   0.0000 </r>
        <r>  -2.0369   0.0354   0.0009   0.0017   0.0048   0.0000   0.0000   0.0000   0.0000   0.0000 </r>
        <r>  -1.9742   0.0822   0.0044   0.0046   0.0098   0.0000   0.0000   0.0000   0.0000   0.0000 </r>
        <r>  -1.9115   0.2007   0.0131   0.0131   0.0212   0.0000   0.0000   0.0000   0.0000   0.0000 </r>
        <r>  -1.8488   0.2798   0.0192   0.0192   0.0286   0.0000   0.0000   0.0000   0.0000   0.0000 </r>
        <r>  -1.7861   0.2019   0.0135   0.0135   0.0215   0.0000   0.0000   0.0000   0.0000   0.0000 </r>
        <r>  -1.7234   0.0805   0.0046   0.0047   0.0103   0.0000   0.0000   0.0000   0.0000   0.0000 </r>
        <r>  -1.6607   0.0296   0.0009   0.0013   0.0053   0.0000   0.0000   0.0000   0.0000   0.0000 </r>
        <r>  -1.5980   0.0305   0.0005   0.0021   0.0055   0.0000   0.0000   0.0000   0.0000   0.0000 </r>
        <r>  -1.5354   0.0491   0.0015   0.0047   0.0068   0.0000   0.0000   0.0000   0.0000   0.0000 </r>
        <r>  -1.4727   0.0740   0.0046   0.0076   0.0076   0.0000   0.0000   0.0000   0.0000   0.0000 </r>
        <r>  -1.4100   0.0881   0.0073   0.0087   0.0079   0.0000   0.0000   0.0000   0.0000   0.0000 </r>
        <r>  -1.3473   0.0657   0.0058   0.0061   0.0061   0.0000   0.0000   0.0000   0.0000   0.0000 </r>
        <r>  -1.2846   0.0368   0.0034   0.0032   0.0037   0.0000   0.0000   0.0000   0.0000   0.0000 </r>
        <r>  -1.2219   0.0406   0.0039   0.0035   0.0046   0.0000   0.0000   0.0000   0.0000   0.0000 </r>
        <r>  -1.1592   0.0556   0.0059   0.0058   0.0079   0.0000   0.0000   0.0000   0.0000   0.0000 </r>
        <r>  -1.0965   0.0652   0.0102   0.0104   0.0124   0.0000   0.0000   0.0000   0.0000   0.0000 </r>
        <r>  -1.0338   0.0953   0.0186   0.0193   0.0188   0.0000   0.0000   0.0000   0.0000   0.0000 </r>
        <r>  -0.9711   0.1368   0.0246   0.0266   0.0239   0.0000   0.0000   0.0000   0.0000   0.0000 </r>
        <r>  -0.9085   0.1578   0.0256   0.0300   0.0285   0.0000   0.0000   0.0000   0.0000   0.0000 </r>
        <r>  -0.8458   0.1677   0.0272   0.0336   0.0355   0.0000   0.0000   0.0000   0.0000   0.0000 </r>
        <r>  -0.7831   0.1580   0.0257   0.0324   0.0360   0.0000   0.0000   0.0000   0.0000   0.0000 </r>
        <r>  -0.7204   0.1265   0.0214   0.0259   0.0286   0.0000   0.0000   0.0000   0.0000   0.0000 </r>
        <r>  -0.6577   0.1147   0.0212   0.0224   0.0236   0.0000   0.0000   0.0000   0.0000   0.0000 </r>
        <r>  -0.5950   0.1205   0.0218   0.0203   0.0200   0.0000   0.0000   0.0000   0.0000   0.0000 </r>
        <r>  -0.5323   0.1250   0.0222   0.0185   0.0172   0.0000   0.0000   0.0000   0.0000   0.0000 </r>
        <r>  -0.4696   0.1341   0.0242   0.0203   0.0208   0.0000   0.0000   0.0000   0.0000   0.0000 </r>
        <r>  -0.4069   0.1284   0.0236   0.0213   0.0243   0.0000   0.0000   0.0000   0.0000   0.0000 </r>
        <r>  -0.3442   0.0914   0.0176   0.0166   0.0199   0.0000   0.0000   0.0000   0.0000   0.0000 </r>
        <r>  -0.2816   0.0606   0.0123   0.0120   0.0146   0.0000   0.0000   0.0000   0.0000   0.0000 </r>
        <r>  -0.2189   0.0615   0.0124   0.0124   0.0141   0.0000   0.0000   0.0000   0.0000   0.0000 </r>
        <r>  -0.1562   0.0725   0.0143   0.0143   0.0151   0.0000   0.0000   0.0000   0.0000   0.0000 </r>
        <r>  -0.0935   0.0720   0.0139   0.0138   0.0155   0.0000   0.0000   0.0000   0.0000   0.0000 </r>
        <r>  -0.0308   0.0656   0.0122   0.0116   0.0157   0.0000   0.0000   0.0000   0.0000   0.0000 </r>
        <r>   0.0319   0.0643   0.0121   0.0100   0.0147   0.0000   0.0000   0.0000   0.0000   0.0000 </r>
        <r>   0.0946   0.0726   0.0141   0.0104   0.0142   0.0000   0.0000   0.0000   0.0000   0.0000 </r>
        <r>   0.1573   0.0762   0.0142   0.0111   0.0146   0.0000   0.0000   0.0000   0.0000   0.0000 </r>
        <r>   0.2200   0.0672   0.0116   0.0104   0.0144   0.0000   0.0000   0.0000   0.0000   0.0000 </r>
        <r>   0.2827   0.0698   0.0113   0.0110   0.0164   0.0000   0.0000   0.0000   0.0000   0.0000 </r>
        <r>   0.3454   0.0958   0.0149   0.0147   0.0229   0.0000   0.0000   0.0000   0.0000   0.0000 </r>
        <r>   0.4080   0.1396   0.0216   0.0209   0.0343   0.0000   0.0000   0.0000   0.0000   0.0000 </r>
        <r>   0.4707   0.1775   0.0284   0.0266   0.0444   0.0000   0.0000   0.0000   0.0000   0.0000 </r>
        <r>   0.5334   0.1630   0.0293   0.0267   0.0419   0.0000   0.0000   0.0000   0.0000   0.0000 </r>
        <r>   0.5961   0.1343   0.0309   0.0287   0.0377   0.0000   0.0000   0.0000   0.0000   0.0000 </r>
        <r>   0.6588   0.1308   0.0349   0.0333   0.0396   0.0000   0.0000   0.0000   0.0000   0.0000 </r>
        <r>   0.7215   0.1003   0.0272   0.0261   0.0308   0.0000   0.0000   0.0000   0.0000   0.0000 </r>
        <r>   0.7842   0.0439   0.0117   0.0112   0.0135   0.0000   0.0000   0.0000   0.0000   0.0000 </r>
        <r>   0.8469   0.0103   0.0027   0.0026   0.0032   0.0000   0.0000   0.0000   0.0000   0.0000 </r>
        <r>   0.9096   0.0031   0.0007   0.0007   0.0009   0.0000   0.0000   0.0000   0.0000   0.0000 </r>
        <r>   0.9723   0.0064   0.0012   0.0012   0.0018   0.0000   0.0000   0.0000   0.0000   0.0000 </r>
        <r>   1.0349   0.0098   0.0019   0.0019   0.0027   0.0000   0.0000   0.0000   0.0000   0.0000 </r>
        <r>   1.0976   0.0073   0.0014   0.0014   0.0020   0.0000   0.0000   0.0000   0.0000   0.0000 </r>
        <r>   1.1603   0.0026   0.0005   0.0005   0.0007   0.0000   0.0000   0.0000   0.0000   0.0000 </r>
        <r>   1.2230   0.0004   0.0001   0.0001   0.0001   0.0000   0.0000   0.0000   0.0000   0.0000 </r>
        <r>   1.2857   0.0000   0.0000   0.0000   0.0000   0.0000   0.0000   0.0000   0.0000   0.0000 </r>
        <r>   1.3484   0.0002   0.0002   0.0002   0.0003   0.0000   0.0000   0.0000   0.0000   0.0000 </r>
        <r>   1.4111   0.0017   0.0018   0.0018   0.0020   0.0000   0.0000   0.0000   0.0000   0.0000 </r>
        <r>   1.4738   0.0074   0.0068   0.0067   0.0074   0.0000   0.0000   0.0000   0.0000   0.0000 </r>
        <r>   1.5365   0.0172   0.0135   0.0132   0.0146   0.0000   0.0000   0.0000   0.0000   0.0000 </r>
        <r>   1.5992   0.0216   0.0150   0.0147   0.0167   0.0000   0.0000   0.0000   0.0000   0.0000 </r>
        <r>   1.6618   0.0151   0.0111   0.0109   0.0124   0.0000   0.0000   0.0000   0.0000   0.0000 </r>
        <r>   1.7245   0.0059   0.0076   0.0075   0.0075   0.0000   0.0000   0.0000   0.0000   0.0000 </r>
        <r>   1.7872   0.0016   0.0061   0.0060   0.0060   0.0000   0.0000   0.0000   0.0000   0.0000 </r>
        <r>   1.8499   0.0011   0.0054   0.0054   0.0070   0.0000   0.0000   0.0000   0.0000   0.0000 </r>
        <r>   1.9126   0.0016   0.0065   0.0065   0.0085   0.0000   0.0000   0.0000   0.0000   0.0000 </r>
        <r>   1.9753   0.0026   0.0111   0.0107   0.0120   0.0000   0.0000   0.0000   0.0000   0.0000 </r>
        <r>   2.0380   0.0052   0.0208   0.0199   0.0242   0.0000   0.0000   0.0000   0.0000   0.0000 </r>
        <r>   2.1007   0.0123   0.0380   0.0371   0.0558   0.0000   0.0000   0.0000   0.0000   0.0000 </r>
        <r>   2.1634   0.0239   0.0568   0.0572   0.0997   0.0000   0.0000   0.0000   0.0000   0.0000 </r>
        <r>   2.2261   0.0324   0.0664   0.0674   0.1220   0.0000   0.0000   0.0000   0.0000   0.0000 </r>
        <r>   2.2888   0.0314   0.0637   0.0641   0.1106   0.0000   0.0000   0.0000   0.0000   0.0000 </r>
        <r>   2.3514   0.0236   0.0513   0.0508   0.0852   0.0000   0.0000   0.0000   0.0000   0.0000 </r>
        <r>   2.4141   0.0197   0.0425   0.0412   0.0685   0.0000   0.0000   0.0000   0.0000   0.0000 </r>
        <r>   2.4768   0.0258   0.0478   0.0470   0.0708   0.0000   0.0000   0.0000   0.0000   0.0000 </r>
        <r>   2.5395   0.0340   0.0567   0.0572   0.0799   0.0000   0.0000   0.0000   0.0000   0.0000 </r>
        <r>   2.6022   0.0327   0.0555   0.0558   0.0791   0.0000   0.0000   0.0000   0.0000   0.0000 </r>
        <r>   2.6649   0.0246   0.0439   0.0432   0.0679   0.0000   0.0000   0.0000   0.0000   0.0000 </r>
        <r>   2.7276   0.0189   0.0334   0.0327   0.0572   0.0000   0.0000   0.0000   0.0000   0.0000 </r>
        <r>   2.7903   0.0168   0.0324   0.0350   0.0559   0.0000   0.0000   0.0000   0.0000   0.0000 </r>
        <r>   2.8530   0.0188   0.0441   0.0506   0.0672   0.0000   0.0000   0.0000   0.0000   0.0000 </r>
        <r>   2.9157   0.0224   0.0634   0.0700   0.0864   0.0000   0.0000   0.0000   0.0000   0.0000 </r>
        <r>   2.9783   0.0213   0.0870   0.0926   0.1184   0.0000   0.0000   0.0000   0.0000   0.0000 </r>
        <r>   3.0410   0.0176   0.1351   0.1382   0.1723   0.0000   0.0000   0.0000   0.0000   0.0000 </r>
        <r>   3.1037   0.0200   0.1900   0.1865   0.2110   0.0000   0.0000   0.0000   0.0000   0.0000 </r>
        <r>   3.1664   0.0303   0.1877   0.1797   0.1869   0.0000   0.0000   0.0000   0.0000   0.0000 </r>
        <r>   3.2291   0.0330   0.1369   0.1299   0.1284   0.0000   0.0000   0.0000   0.0000   0.0000 </r>
        <r>   3.2918   0.0211   0.0888   0.0840   0.0788   0.0000   0.0000   0.0000   0.0000   0.0000 </r>
        <r>   3.3545   0.0084   0.0601   0.0562   0.0486   0.0000   0.0000   0.0000   0.0000   0.0000 </r>
        <r>   3.4172   0.0044   0.0461   0.0445   0.0371   0.0000   0.0000   0.0000   0.0000   0.0000 </r>
        <r>   3.4799   0.0074   0.0417   0.0395   0.0364   0.0000   0.0000   0.0000   0.0000   0.0000 </r>
        <r>   3.5426   0.0144   0.0467   0.0402   0.0415   0.0000   0.0000   0.0000   0.0000   0.0000 </r>
        <r>   3.6052   0.0200   0.0557   0.0487   0.0448   0.0000   0.0000   0.0000   0.0000   0.0000 </r>
[...]
        <r>  0.0207  0.0008  0.0056  0.0044  0.0000  0.0000  0.0000  0.0000  0.0000 </r>
        <r>  0.0053  0.0002  0.0066  0.0016  0.0000  0.0000  0.0000  0.0000  0.0000 </r>
        <r>  0.0207  0.0008  0.0075  0.0025  0.0000  0.0000  0.0000  0.0000  0.0000 </r>
        <r>  0.0053  0.0002  0.0046  0.0035  0.0000  0.0000  0.0000  0.0000  0.0000 </r>
        <r>  0.0207  0.0008  0.0075  0.0025  0.0000  0.0000  0.0000  0.0000  0.0000 </r>
        <r>  0.0053  0.0002  0.0046  0.0035  0.0000  0.0000  0.0000  0.0000  0.0000 </r>
       </set>
       <set comment="band 19">
        <r>  0.0053  0.0002  0.0035  0.0046  0.0000  0.0000  0.0000  0.0000  0.0000 </r>
        <r>  0.0207  0.0008  0.0025  0.0075  0.0000  0.0000  0.0000  0.0000  0.0000 </r>
        <r>  0.0053  0.0002  0.0035  0.0046  0.0000  0.0000  0.0000  0.0000  0.0000 </r>
        <r>  0.0207  0.0008  0.0025  0.0075  0.0000  0.0000  0.0000  0.0000  0.0000 </r>
        <r>  0.0053  0.0002  0.0016  0.0066  0.0000  0.0000  0.0000  0.0000  0.0000 </r>
        <r>  0.0207  0.0008  0.0045  0.0056  0.0000  0.0000  0.0000  0.0000  0.0000 </r>
        <r>  0.0053  0.0002  0.0016  0.0066  0.0000  0.0000  0.0000  0.0000  0.0000 </r>
        <r>  0.0207  0.0008  0.0045  0.0056  0.0000  0.0000  0.0000  0.0000  0.0000 </r>
       </set>
       <set comment="band 20">
        <r>  0.0126  0.0075  0.0009  0.0006  0.0000  0.0000  0.0000  0.0000  0.0000 </r>
        <r>  0.0111  0.0080  0.0007  0.0006  0.0000  0.0000  0.0000  0.0000  0.0000 </r>
        <r>  0.0124  0.0080  0.0005  0.0006  0.0000  0.0000  0.0000  0.0000  0.0000 </r>
        <r>  0.0134  0.0076  0.0005  0.0008  0.0000  0.0000  0.0000  0.0000  0.0000 </r>
        <r>  0.0119  0.0081  0.0006  0.0005  0.0000  0.0000  0.0000  0.0000  0.0000 </r>
        <r>  0.0110  0.0081  0.0006  0.0007  0.0000  0.0000  0.0000  0.0000  0.0000 </r>
        <r>  0.0130  0.0074  0.0007  0.0009  0.0000  0.0000  0.0000  0.0000  0.0000 </r>
        <r>  0.0136  0.0075  0.0008  0.0006  0.0000  0.0000  0.0000  0.0000  0.0000 </r>
       </set>
       <set comment="band 21">
        <r>  0.0141  0.0023  0.0003  0.0088  0.0000  0.0000  0.0000  0.0000  0.0000 </r>
        <r>  0.0099  0.0016  0.0071  0.0024  0.0000  0.0000  0.0000  0.0000  0.0000 </r>
        <r>  0.0141  0.0023  0.0003  0.0088  0.0000  0.0000  0.0000  0.0000  0.0000 </r>
        <r>  0.0099  0.0016  0.0071  0.0024  0.0000  0.0000  0.0000  0.0000  0.0000 </r>
        <r>  0.0141  0.0023  0.0069  0.0022  0.0000  0.0000  0.0000  0.0000  0.0000 </r>
        <r>  0.0099  0.0016  0.0005  0.0090  0.0000  0.0000  0.0000  0.0000  0.0000 </r>
        <r>  0.0141  0.0023  0.0069  0.0022  0.0000  0.0000  0.0000  0.0000  0.0000 </r>
        <r>  0.0099  0.0016  0.0005  0.0090  0.0000  0.0000  0.0000  0.0000  0.0000 </r>
       </set>
      </set>
      <set comment="kpoint 40">
       <set comment="band 1">
        <r>  0.0537  0.0000  0.0000  0.0000  0.0000  0.0000  0.0000  0.0000  0.0000 </r>
        <r>  0.0537  0.0000  0.0000  0.0000  0.0000  0.0000  0.0000  0.0000  0.0000 </r>
        <r>  0.0537  0.0000  0.0000  0.0000  0.0000  0.0000  0.0000  0.0000  0.0000 </r>
        <r>  0.0537  0.0000  0.0000  0.0000  0.0000  0.0000  0.0000  0.0000  0.0000 </r>
        <r>  0.0537  0.0000  0.0000  0.0000  0.0000  0.0000  0.0000  0.0000  0.0000 </r>
        <r>  0.0537  0.0000  0.0000  0.0000  0.0000  0.0000  0.0000  0.0000  0.0000 </r>
        <r>  0.0537  0.0000  0.0000  0.0000  0.0000  0.0000  0.0000  0.0000  0.0000 </r>
        <r>  0.0537  0.0000  0.0000  0.0000  0.0000  0.0000  0.0000  0.0000  0.0000 </r>
       </set>
       <set comment="band 2">
        <r>  0.0028  0.0000  0.0227  0.0000  0.0000  0.0000  0.0000  0.0000  0.0000 </r>
        <r>  0.0027  0.0000  0.0227  0.0000  0.0000  0.0000  0.0000  0.0000  0.0000 </r>
        <r>  0.0020  0.0000  0.0227  0.0000  0.0000  0.0000  0.0000  0.0000  0.0000 </r>
        <r>  0.0019  0.0000  0.0227  0.0000  0.0000  0.0000  0.0000  0.0000  0.0000 </r>
        <r>  0.0929  0.0000  0.0005  0.0000  0.0000  0.0000  0.0000  0.0000  0.0000 </r>
        <r>  0.1001  0.0000  0.0005  0.0000  0.0000  0.0000  0.0000  0.0000  0.0000 </r>
        <r>  0.0888  0.0000  0.0005  0.0000  0.0000  0.0000  0.0000  0.0000  0.0000 </r>
        <r>  0.0959  0.0000  0.0005  0.0000  0.0000  0.0000  0.0000  0.0000  0.0000 </r>
       </set>
       <set comment="band 3">
        <r>  0.0925  0.0000  0.0005  0.0000  0.0000  0.0000  0.0000  0.0000  0.0000 </r>
        <r>  0.0940  0.0000  0.0005  0.0000  0.0000  0.0000  0.0000  0.0000  0.0000 </r>
        <r>  0.0950  0.0000  0.0005  0.0000  0.0000  0.0000  0.0000  0.0000  0.0000 </r>
        <r>  0.0965  0.0000  0.0005  0.0000  0.0000  0.0000  0.0000  0.0000  0.0000 </r>
        <r>  0.0023  0.0000  0.0227  0.0000  0.0000  0.0000  0.0000  0.0000  0.0000 </r>
        <r>  0.0022  0.0000  0.0227  0.0000  0.0000  0.0000  0.0000  0.0000  0.0000 </r>
        <r>  0.0023  0.0000  0.0227  0.0000  0.0000  0.0000  0.0000  0.0000  0.0000 </r>
        <r>  0.0022  0.0000  0.0227  0.0000  0.0000  0.0000  0.0000  0.0000  0.0000 </r>
       </set>
       <set comment="band 4">
        <r>  0.0476  0.0117  0.0000  0.0009  0.0000  0.0000  0.0000  0.0000  0.0000 </r>
        <r>  0.0410  0.0117  0.0000  0.0009  0.0000  0.0000  0.0000  0.0000  0.0000 </r>
        <r>  0.0413  0.0117  0.0000  0.0009  0.0000  0.0000  0.0000  0.0000  0.0000 </r>
        <r>  0.0473  0.0117  0.0000  0.0009  0.0000  0.0000  0.0000  0.0000  0.0000 </r>
        <r>  0.0277  0.0080  0.0000  0.0027  0.0000  0.0000  0.0000  0.0000  0.0000 </r>
        <r>  0.0701  0.0080  0.0000  0.0027  0.0000  0.0000  0.0000  0.0000  0.0000 </r>
        <r>  0.0797  0.0080  0.0000  0.0027  0.0000  0.0000  0.0000  0.0000  0.0000 </r>
        <r>  0.0323  0.0080  0.0000  0.0027  0.0000  0.0000  0.0000  0.0000  0.0000 </r>
       </set>
       <set comment="band 5">
        <r>  0.0319  0.0092  0.0000  0.0005  0.0000  0.0000  0.0000  0.0000  0.0000 </r>
        <r>  0.0814  0.0092  0.0000  0.0005  0.0000  0.0000  0.0000  0.0000  0.0000 </r>
        <r>  0.0801  0.0092  0.0000  0.0005  0.0000  0.0000  0.0000  0.0000  0.0000 </r>
        <r>  0.0311  0.0092  0.0000  0.0005  0.0000  0.0000  0.0000  0.0000  0.0000 </r>
        <r>  0.0549  0.0128  0.0000  0.0007  0.0000  0.0000  0.0000  0.0000  0.0000 </r>
        <r>  0.0282  0.0128  0.0000  0.0007  0.0000  0.0000  0.0000  0.0000  0.0000 </r>
        <r>  0.0270  0.0128  0.0000  0.0007  0.0000  0.0000  0.0000  0.0000  0.0000 </r>
        <r>  0.0524  0.0128  0.0000  0.0007  0.0000  0.0000  0.0000  0.0000  0.0000 </r>
       </set>
       <set comment="band 6">
        <r>  0.0913  0.0023  0.0000  0.0054  0.0000  0.0000  0.0000  0.0000  0.0000 </r>
        <r>  0.0385  0.0023  0.0000  0.0054  0.0000  0.0000  0.0000  0.0000  0.0000 </r>
        <r>  0.0388  0.0023  0.0000  0.0054  0.0000  0.0000  0.0000  0.0000  0.0000 </r>
        <r>  0.0897  0.0023  0.0000  0.0054  0.0000  0.0000  0.0000  0.0000  0.0000 </r>
        <r>  0.0445  0.0024  0.0000  0.0131  0.0000  0.0000  0.0000  0.0000  0.0000 </r>
        <r>  0.0209  0.0024  0.0000  0.0131  0.0000  0.0000  0.0000  0.0000  0.0000 </r>
        <r>  0.0232  0.0024  0.0000  0.0131  0.0000  0.0000  0.0000  0.0000  0.0000 </r>
        <r>  0.0401  0.0024  0.0000  0.0131  0.0000  0.0000  0.0000  0.0000  0.0000 </r>
       </set>
       <set comment="band 7">
        <r>  0.0242  0.0000  0.0000  0.0164  0.0000  0.0000  0.0000  0.0000  0.0000 </r>
        <r>  0.0326  0.0000  0.0000  0.0164  0.0000  0.0000  0.0000  0.0000  0.0000 </r>
        <r>  0.0331  0.0000  0.0000  0.0164  0.0000  0.0000  0.0000  0.0000  0.0000 </r>
        <r>  0.0238  0.0000  0.0000  0.0164  0.0000  0.0000  0.0000  0.0000  0.0000 </r>
        <r>  0.0679  0.0001  0.0000  0.0068  0.0000  0.0000  0.0000  0.0000  0.0000 </r>
        <r>  0.0687  0.0001  0.0000  0.0068  0.0000  0.0000  0.0000  0.0000  0.0000 </r>
        <r>  0.0693  0.0001  0.0000  0.0068  0.0000  0.0000  0.0000  0.0000  0.0000 </r>
        <r>  0.0673  0.0001  0.0000  0.0068  0.0000  0.0000  0.0000  0.0000  0.0000 </r>
       </set>
       <set comment="band 8">
        <r>  0.0000  0.0236  0.0266  0.0000  0.0000  0.0000  0.0000  0.0000  0.0000 </r>
        <r>  0.0000  0.0236  0.0265  0.0000  0.0000  0.0000  0.0000  0.0000  0.0000 </r>
        <r>  0.0000  0.0236  0.0265  0.0000  0.0000  0.0000  0.0000  0.0000  0.0000 </r>
        <r>  0.0000  0.0236  0.0266  0.0000  0.0000  0.0000  0.0000  0.0000  0.0000 </r>
        <r>  0.0000  0.0265  0.0237  0.0000  0.0000  0.0000  0.0000  0.0000  0.0000 </r>
        <r>  0.0000  0.0265  0.0236  0.0000  0.0000  0.0000  0.0000  0.0000  0.0000 </r>
        <r>  0.0000  0.0265  0.0236  0.0000  0.0000  0.0000  0.0000  0.0000  0.0000 </r>
        <r>  0.0000  0.0265  0.0237  0.0000  0.0000  0.0000  0.0000  0.0000  0.0000 </r>
       </set>
       <set comment="band 9">
        <r>  0.0000  0.0265  0.0237  0.0000  0.0000  0.0000  0.0000  0.0000  0.0000 </r>
        <r>  0.0000  0.0265  0.0236  0.0000  0.0000  0.0000  0.0000  0.0000  0.0000 </r>
        <r>  0.0000  0.0265  0.0236  0.0000  0.0000  0.0000  0.0000  0.0000  0.0000 </r>
        <r>  0.0000  0.0265  0.0237  0.0000  0.0000  0.0000  0.0000  0.0000  0.0000 </r>
        <r>  0.0000  0.0236  0.0265  0.0000  0.0000  0.0000  0.0000  0.0000  0.0000 </r>
        <r>  0.0000  0.0236  0.0266  0.0000  0.0000  0.0000  0.0000  0.0000  0.0000 </r>
        <r>  0.0000  0.0236  0.0266  0.0000  0.0000  0.0000  0.0000  0.0000  0.0000 </r>
        <r>  0.0000  0.0236  0.0265  0.0000  0.0000  0.0000  0.0000  0.0000  0.0000 </r>
       </set>
       <set comment="band 10">
        <r>  0.0000  0.0000  0.0090  0.0412  0.0000  0.0000  0.0000  0.0000  0.0000 </r>
        <r>  0.0000  0.0000  0.0090  0.0412  0.0000  0.0000  0.0000  0.0000  0.0000 </r>
        <r>  0.0000  0.0000  0.0090  0.0412  0.0000  0.0000  0.0000  0.0000  0.0000 </r>
        <r>  0.0000  0.0000  0.0090  0.0412  0.0000  0.0000  0.0000  0.0000  0.0000 </r>
        <r>  0.0000  0.0000  0.0412  0.0090  0.0000  0.0000  0.0000  0.0000  0.0000 </r>
        <r>  0.0000  0.0000  0.0412  0.0090  0.0000  0.0000  0.0000  0.0000  0.0000 </r>
        <r>  0.0000  0.0000  0.0412  0.0090  0.0000  0.0000  0.0000  0.0000  0.0000 </r>
        <r>  0.0000  0.0000  0.0412  0.0090  0.0000  0.0000  0.0000  0.0000  0.0000 </r>
       </set>
       <set comment="band 11">
        <r>  0.0000  0.0000  0.0411  0.0090  0.0000  0.0000  0.0000  0.0000  0.0000 </r>
        <r>  0.0000  0.0000  0.0412  0.0090  0.0000  0.0000  0.0000  0.0000  0.0000 </r>
        <r>  0.0000  0.0000  0.0412  0.0090  0.0000  0.0000  0.0000  0.0000  0.0000 </r>
        <r>  0.0000  0.0000  0.0411  0.0090  0.0000  0.0000  0.0000  0.0000  0.0000 </r>
        <r>  0.0000  0.0000  0.0090  0.0412  0.0000  0.0000  0.0000  0.0000  0.0000 </r>
        <r>  0.0000  0.0000  0.0090  0.0412  0.0000  0.0000  0.0000  0.0000  0.0000 </r>
        <r>  0.0000  0.0000  0.0090  0.0412  0.0000  0.0000  0.0000  0.0000  0.0000 </r>
        <r>  0.0000  0.0000  0.0090  0.0412  0.0000  0.0000  0.0000  0.0000  0.0000 </r>
       </set>
       <set comment="band 12">
        <r>  0.0000  0.0315  0.0000  0.0187  0.0000  0.0000  0.0000  0.0000  0.0000 </r>
        <r>  0.0000  0.0315  0.0000  0.0187  0.0000  0.0000  0.0000  0.0000  0.0000 </r>
        <r>  0.0000  0.0315  0.0000  0.0187  0.0000  0.0000  0.0000  0.0000  0.0000 </r>
        <r>  0.0000  0.0315  0.0000  0.0187  0.0000  0.0000  0.0000  0.0000  0.0000 </r>
        <r>  0.0000  0.0187  0.0000  0.0315  0.0000  0.0000  0.0000  0.0000  0.0000 </r>
        <r>  0.0000  0.0187  0.0000  0.0315  0.0000  0.0000  0.0000  0.0000  0.0000 </r>
        <r>  0.0000  0.0187  0.0000  0.0315  0.0000  0.0000  0.0000  0.0000  0.0000 </r>
        <r>  0.0000  0.0187  0.0000  0.0315  0.0000  0.0000  0.0000  0.0000  0.0000 </r>
       </set>
       <set comment="band 13">
        <r>  0.0000  0.0187  0.0000  0.0315  0.0000  0.0000  0.0000  0.0000  0.0000 </r>
        <r>  0.0000  0.0187  0.0000  0.0315  0.0000  0.0000  0.0000  0.0000  0.0000 </r>
        <r>  0.0000  0.0187  0.0000  0.0315  0.0000  0.0000  0.0000  0.0000  0.0000 </r>
        <r>  0.0000  0.0187  0.0000  0.0315  0.0000  0.0000  0.0000  0.0000  0.0000 </r>
        <r>  0.0000  0.0315  0.0000  0.0187  0.0000  0.0000  0.0000  0.0000  0.0000 </r>
        <r>  0.0000  0.0315  0.0000  0.0187  0.0000  0.0000  0.0000  0.0000  0.0000 </r>
        <r>  0.0000  0.0315  0.0000  0.0187  0.0000  0.0000  0.0000  0.0000  0.0000 </r>
        <r>  0.0000  0.0315  0.0000  0.0187  0.0000  0.0000  0.0000  0.0000  0.0000 </r>
       </set>
       <set comment="band 14">
        <r>  0.0000  0.0156  0.0152  0.0241  0.0000  0.0000  0.0000  0.0000  0.0000 </r>
        <r>  0.0000  0.0156  0.0152  0.0241  0.0000  0.0000  0.0000  0.0000  0.0000 </r>
        <r>  0.0000  0.0156  0.0152  0.0241  0.0000  0.0000  0.0000  0.0000  0.0000 </r>
        <r>  0.0000  0.0156  0.0152  0.0241  0.0000  0.0000  0.0000  0.0000  0.0000 </r>
        <r>  0.0000  0.0156  0.0152  0.0241  0.0000  0.0000  0.0000  0.0000  0.0000 </r>
        <r>  0.0000  0.0156  0.0152  0.0241  0.0000  0.0000  0.0000  0.0000  0.0000 </r>
        <r>  0.0000  0.0156  0.0152  0.0241  0.0000  0.0000  0.0000  0.0000  0.0000 </r>
        <r>  0.0000  0.0156  0.0152  0.0241  0.0000  0.0000  0.0000  0.0000  0.0000 </r>
       </set>
       <set comment="band 15">
        <r>  0.0000  0.0344  0.0080  0.0125  0.0000  0.0000  0.0000  0.0000  0.0000 </r>
        <r>  0.0000  0.0344  0.0080  0.0125  0.0000  0.0000  0.0000  0.0000  0.0000 </r>
        <r>  0.0000  0.0344  0.0080  0.0125  0.0000  0.0000  0.0000  0.0000  0.0000 </r>
        <r>  0.0000  0.0344  0.0080  0.0125  0.0000  0.0000  0.0000  0.0000  0.0000 </r>
        <r>  0.0000  0.0344  0.0080  0.0125  0.0000  0.0000  0.0000  0.0000  0.0000 </r>
        <r>  0.0000  0.0344  0.0080  0.0125  0.0000  0.0000  0.0000  0.0000  0.0000 </r>
        <r>  0.0000  0.0344  0.0080  0.0125  0.0000  0.0000  0.0000  0.0000  0.0000 </r>
        <r>  0.0000  0.0344  0.0080  0.0125  0.0000  0.0000  0.0000  0.0000  0.0000 </r>
       </set>
       <set comment="band 16">
        <r>  0.0000  0.0049  0.0317  0.0183  0.0000  0.0000  0.0000  0.0000  0.0000 </r>
        <r>  0.0000  0.0049  0.0317  0.0183  0.0000  0.0000  0.0000  0.0000  0.0000 </r>
        <r>  0.0000  0.0049  0.0317  0.0183  0.0000  0.0000  0.0000  0.0000  0.0000 </r>
        <r>  0.0000  0.0049  0.0317  0.0183  0.0000  0.0000  0.0000  0.0000  0.0000 </r>
        <r>  0.0000  0.0049  0.0317  0.0183  0.0000  0.0000  0.0000  0.0000  0.0000 </r>
        <r>  0.0000  0.0049  0.0317  0.0183  0.0000  0.0000  0.0000  0.0000  0.0000 </r>
        <r>  0.0000  0.0049  0.0317  0.0183  0.0000  0.0000  0.0000  0.0000  0.0000 </r>
        <r>  0.0000  0.0049  0.0317  0.0183  0.0000  0.0000  0.0000  0.0000  0.0000 </r>
       </set>
       <set comment="band 17">
        <r>  0.0206  0.0019  0.0060  0.0003  0.0000  0.0000  0.0000  0.0000  0.0000 </r>
        <r>  0.0138  0.0019  0.0060  0.0003  0.0000  0.0000  0.0000  0.0000  0.0000 </r>
        <r>  0.0080  0.0019  0.0060  0.0003  0.0000  0.0000  0.0000  0.0000  0.0000 </r>
        <r>  0.0134  0.0019  0.0060  0.0003  0.0000  0.0000  0.0000  0.0000  0.0000 </r>
        <r>  0.0139  0.0090  0.0001  0.0001  0.0000  0.0000  0.0000  0.0000  0.0000 </r>
        <r>  0.0171  0.0090  0.0001  0.0001  0.0000  0.0000  0.0000  0.0000  0.0000 </r>
        <r>  0.0054  0.0090  0.0001  0.0001  0.0000  0.0000  0.0000  0.0000  0.0000 </r>
        <r>  0.0131  0.0090  0.0001  0.0001  0.0000  0.0000  0.0000  0.0000  0.0000 </r>
       </set>
       <set comment="band 18">
        <r>  0.0096  0.0090  0.0001  0.0032  0.0000  0.0000  0.0000  0.0000  0.0000 </r>
        <r>  0.0026  0.0090  0.0001  0.0032  0.0000  0.0000  0.0000  0.0000  0.0000 </r>
        <r>  0.0065  0.0090  0.0001  0.0032  0.0000  0.0000  0.0000  0.0000  0.0000 </r>
        <r>  0.0125  0.0090  0.0001  0.0032  0.0000  0.0000  0.0000  0.0000  0.0000 </r>
        <r>  0.0233  0.0036  0.0012  0.0004  0.0000  0.0000  0.0000  0.0000  0.0000 </r>
        <r>  0.0116  0.0036  0.0012  0.0004  0.0000  0.0000  0.0000  0.0000  0.0000 </r>
        <r>  0.0098  0.0036  0.0012  0.0004  0.0000  0.0000  0.0000  0.0000  0.0000 </r>
        <r>  0.0295  0.0036  0.0012  0.0004  0.0000  0.0000  0.0000  0.0000  0.0000 </r>
       </set>
       <set comment="band 19">
        <r>  0.0038  0.0019  0.0001  0.0045  0.0000  0.0000  0.0000  0.0000  0.0000 </r>
        <r>  0.0310  0.0019  0.0001  0.0045  0.0000  0.0000  0.0000  0.0000  0.0000 </r>
        <r>  0.0081  0.0019  0.0001  0.0045  0.0000  0.0000  0.0000  0.0000  0.0000 </r>
        <r>  0.0231  0.0019  0.0001  0.0045  0.0000  0.0000  0.0000  0.0000  0.0000 </r>
        <r>  0.0033  0.0001  0.0016  0.0092  0.0000  0.0000  0.0000  0.0000  0.0000 </r>
        <r>  0.0135  0.0001  0.0016  0.0092  0.0000  0.0000  0.0000  0.0000  0.0000 </r>
        <r>  0.0195  0.0001  0.0016  0.0092  0.0000  0.0000  0.0000  0.0000  0.0000 </r>
        <r>  0.0031  0.0001  0.0016  0.0092  0.0000  0.0000  0.0000  0.0000  0.0000 </r>
       </set>
       <set comment="band 20">
        <r>  0.0180  0.0009  0.0053  0.0044  0.0000  0.0000  0.0000  0.0000  0.0000 </r>
        <r>  0.0096  0.0009  0.0053  0.0044  0.0000  0.0000  0.0000  0.0000  0.0000 </r>
        <r>  0.0103  0.0009  0.0053  0.0043  0.0000  0.0000  0.0000  0.0000  0.0000 </r>
        <r>  0.0038  0.0009  0.0053  0.0043  0.0000  0.0000  0.0000  0.0000  0.0000 </r>
        <r>  0.0184  0.0016  0.0011  0.0042  0.0000  0.0000  0.0000  0.0000  0.0000 </r>
        <r>  0.0010  0.0016  0.0011  0.0042  0.0000  0.0000  0.0000  0.0000  0.0000 </r>
        <r>  0.0423  0.0016  0.0011  0.0042  0.0000  0.0000  0.0000  0.0000  0.0000 </r>
        <r>  0.0019  0.0016  0.0011  0.0042  0.0000  0.0000  0.0000  0.0000  0.0000 </r>
       </set>
       <set comment="band 21">
        <r>  0.0148  0.0015  0.0004  0.0017  0.0000  0.0000  0.0000  0.0000  0.0000 </r>
        <r>  0.0107  0.0015  0.0004  0.0017  0.0000  0.0000  0.0000  0.0000  0.0000 </r>
        <r>  0.0339  0.0015  0.0004  0.0017  0.0000  0.0000  0.0000  0.0000  0.0000 </r>
        <r>  0.0244  0.0015  0.0004  0.0017  0.0000  0.0000  0.0000  0.0000  0.0000 </r>
        <r>  0.0124  0.0009  0.0127  0.0002  0.0000  0.0000  0.0000  0.0000  0.0000 </r>
        <r>  0.0026  0.0009  0.0127  0.0002  0.0000  0.0000  0.0000  0.0000  0.0000 </r>
        <r>  0.0008  0.0009  0.0127  0.0002  0.0000  0.0000  0.0000  0.0000  0.0000 </r>
        <r>  0.0057  0.0009  0.0127  0.0002  0.0000  0.0000  0.0000  0.0000  0.0000 </r>
       </set>
      </set>
     </set>
    </set>
   </array>
  </projected>
 </calculation>
 <structure name="finalpos" >
  <crystal>
   <varray name="basis" >
    <v>       5.42000000       0.00000000       0.00000000 </v>
    <v>       0.00000000       5.42000000       0.00000000 </v>
    <v>       0.00000000       0.00000000       5.42000000 </v>
   </varray>
   <i name="volume">    159.22008800</i>
   <varray name="rec_basis" >
    <v>       0.18450185       0.00000000       0.00000000 </v>
    <v>       0.00000000       0.18450185       0.00000000 </v>
    <v>       0.00000000       0.00000000       0.18450185 </v>
   </varray>
  </crystal>
  <varray name="positions" >
   <v>       0.00000000       0.00000000       0.00000000 </v>
   <v>       0.00000000       0.50000000       0.50000000 </v>
   <v>       0.50000000       0.00000000       0.50000000 </v>
   <v>       0.50000000       0.50000000       0.00000000 </v>
   <v>       0.25000000       0.25000000       0.25000000 </v>
   <v>       0.25000000       0.75000000       0.75000000 </v>
   <v>       0.75000000       0.25000000       0.75000000 </v>
   <v>       0.75000000       0.75000000       0.25000000 </v>
  </varray>
 </structure>
</modeling>
